LAMMPS (11 Aug 2017)
# Nuclear model with 75% neutrons and 25% protons
# Run to generate equilibrium position

units             lj
atom_style        atomic

pair_style        table linear 5000
boundary          p p p

read_data	  data.input_ZNyN
  orthogonal box = (0 0 0) to (42.2 42.2 42.2)
  1 by 1 by 1 MPI processor grid
WARNING: Atom style in data file differs from currently defined atom style (../read_data.cpp:493)
  reading atoms ...
  6000 atoms
  reading velocities ...
  6000 velocities

neighbor          1.2 bin
neigh_modify      every 1 delay 0 check yes one 8000 page 80000

timestep          0.1

thermo_style      custom step temp ke epair etotal press cpu
thermo            200
pair_coeff        1 1 pandha_msc.table NN 5.4
pair_coeff        1 2 pandha_msc.table NP 5.4
pair_coeff        2 2 pandha_msc.table PP 5.4

variable          p_step equal step
variable          p_temp equal temp
variable          p_ke equal ke
variable          p_epair equal epair
variable          p_tot equal etotal

fix               escribir all print 200 "${p_step} ${p_temp} ${p_ke} ${p_epair} ${p_tot}" file thermo.dat screen no title "step  temp ke epair etotal"

dump              myDUMP all custom 2000 eq_t_0-5.lammpstrj id type x y z vx vy vz
fix               1 all nvt temp 0.5 0.5 10.0

write_restart 	  eq_t_0-5_*.restart
Neighbor list info ...
  update every 1 steps, delay 0 steps, check yes
  max neighbors/atom: 8000, page size: 80000
  master list distance cutoff = 6.6
  ghost atom cutoff = 6.6
  binsize = 3.3, bins = 13 13 13
  1 neighbor lists, perpetual/occasional/extra = 1 0 0
  (1) pair table, perpetual
      attributes: half, newton on
      pair build: half/bin/atomonly/newton
      stencil: half/bin/3d/newton
      bin: standard
run 20000
Per MPI rank memory allocation (min/avg/max) = 6.007 | 6.007 | 6.007 Mbytes
Step Temp KinEng E_pair TotEng Press CPU 
       0    1.0325194    1.5485209    4.8494575    6.3979784    1.3964372            0 
     200    1.8729408     2.808943    1.1961304    4.0050733    1.1436101    2.4656019 
     400    1.4657086    2.1981965   -1.5277905   0.67040608   0.85996028     5.235739 
     600    0.9968457    1.4950193   -3.0613092   -1.5662898   0.70504037    7.8364239 
     800   0.67863671    1.0177854   -3.7920893   -2.7743039   0.64509373    10.508185 
    1000   0.51090001   0.76622229   -4.1155771   -3.3493548     0.636547    13.518624 
    1200   0.47452421   0.71166769   -4.2195879   -3.5079202   0.64269063    17.265433 
    1400   0.50905808   0.76345985   -4.1498964   -3.3864365   0.66371642    21.660926 
    1600   0.50919107   0.76365931   -4.1407209   -3.3770616   0.65502222    24.854488 
    1800   0.48902889   0.73342108   -4.2243388   -3.4909177   0.62593166    28.721802 
    2000   0.50163654    0.7523294   -4.2422696   -3.4899402   0.60561575     32.40525 
    2200   0.50093706   0.75128035   -4.2041548   -3.4528744   0.58872507    35.826532 
    2400   0.50194282   0.75278875   -4.1736123   -3.4208236   0.58354425    39.270255 
    2600   0.50566094   0.75836499   -4.1519312   -3.3935662   0.58461972     43.38608 
    2800     0.499251   0.74875169   -4.1558186   -3.4070669   0.59181263    47.525239 
    3000   0.50153013   0.75216981   -4.1877176   -3.4355478   0.59709574    50.831105 
    3200   0.49873013   0.74797052   -4.2155276   -3.4675571   0.60418254    54.306684 
    3400   0.49555613    0.7432103   -4.2138126   -3.4706023   0.60756231    57.420273 
    3600   0.50317336   0.75463424    -4.196565   -3.4419308   0.61171182    60.751489 
    3800   0.50041506   0.75049748   -4.2082647   -3.4577673   0.60642022    63.955824 
    4000   0.50368717   0.75540484   -4.2057685   -3.4503637   0.60425621    67.115609 
    4200   0.50511825   0.75755109   -4.2076493   -3.4500982    0.5983982    70.427762 
    4400   0.49184991   0.73765191   -4.2189635   -3.4813115    0.5916824    73.297369 
    4600   0.51032156   0.76535476   -4.2147979   -3.4494431   0.59190846    76.436653 
    4800   0.50422468   0.75621096   -4.1813997   -3.4251888   0.59235453    79.550537 
    5000   0.49419196   0.74116439    -4.205454   -3.4642896   0.58915116    82.448731 
    5200   0.49627368   0.74428645   -4.2091711   -3.4648847   0.59435224    85.699381 
    5400   0.50751709   0.76114876   -4.2006552   -3.4395065   0.59331317    88.619901 
    5600   0.50402865   0.75591697   -4.2030854   -3.4471684   0.60019604    91.654327 
    5800   0.50166781    0.7523763   -4.2008517   -3.4484754   0.59953423    94.882181 
    6000   0.50555988   0.75821343   -4.2058877   -3.4476742   0.59845644    97.922634 
    6200   0.49340734   0.73998765   -4.1966936    -3.456706   0.59495504     101.1093 
    6400   0.49964503   0.74934264   -4.1892759   -3.4399333   0.59541704    104.12594 
    6600   0.49506661   0.74247614   -4.1909436   -3.4484674   0.59379026    106.91514 
    6800   0.49872078   0.74795649   -4.1837976   -3.4358411   0.59754792     109.4593 
    7000   0.50205127   0.75295139   -4.1710084    -3.418057   0.59873212    112.24945 
    7200   0.50459317   0.75676361   -4.1928373   -3.4360736   0.59421545    115.34315 
    7400   0.49721118   0.74569246   -4.2043731   -3.4586807   0.59356319    119.02982 
    7600    0.4946476   0.74184773   -4.1896102   -3.4477625   0.59635159    122.28564 
    7800   0.50501768   0.75740026   -4.1949507   -3.4375505   0.59492208      125.164 
    8000   0.50078866    0.7510578   -4.2138798    -3.462822   0.59321093       128.35 
    8200   0.49736653   0.74592545   -4.2128296   -3.4669041   0.59093333    131.43561 
    8400   0.50538873   0.75795675   -4.1937049   -3.4357482   0.59449942     134.2945 
    8600   0.49874927   0.74799922   -4.1861002    -3.438101   0.59818351    137.58386 
    8800    0.4941914   0.74116355   -4.2089703   -3.4678067   0.59634593    140.54437 
    9000   0.50362909   0.75531773   -4.2138629   -3.4585452   0.59689309    143.38244 
    9200   0.50175089    0.7525009   -4.2109455   -3.4584446   0.59378516    145.97004 
    9400   0.50404219   0.75593727   -4.2188961   -3.4629588   0.59545189    148.85985 
    9600   0.50083123   0.75112164   -4.2115148   -3.4603931   0.59494503    152.27493 
    9800   0.50754816   0.76119535   -4.2115495   -3.4503541   0.59294054    155.87956 
   10000   0.50444961   0.75654831   -4.2060332   -3.4494849    0.5971189    159.14739 
   10200   0.49523552   0.74272947   -4.2130518   -3.4703224   0.59262326    162.07337 
   10400   0.50170561   0.75243298   -4.2056719   -3.4532389   0.59653058    165.33204 
   10600   0.49430993   0.74134132   -4.1963254    -3.454984   0.59858199    168.37637 
   10800   0.49084902   0.73615082    -4.205317   -3.4691661   0.59727285    171.42238 
   11000   0.49736037   0.74591622   -4.2104186   -3.4645024   0.59271682     174.7052 
   11200   0.49745333   0.74605563   -4.2026903   -3.4566347   0.59555417    177.58187 
   11400   0.50343197    0.7550221   -4.1966773   -3.4416552   0.59594432    180.72052 
   11600   0.49547192   0.74308402    -4.206606   -3.4635219   0.59552724    183.80312 
   11800   0.49506938   0.74248031   -4.2041789   -3.4616986   0.59489455    186.75318 
   12000   0.50862963   0.76281729   -4.1992476   -3.4364303   0.59434051    190.32512 
   12200   0.50361645   0.75529878   -4.2067381   -3.4514393   0.59382088    193.24448 
   12400   0.49900696   0.74838569   -4.2052822   -3.4568965   0.59664138    195.93569 
   12600   0.50503163   0.75742119   -4.1919001   -3.4344789   0.59680448    198.53566 
   12800   0.49189835   0.73772455   -4.1822017   -3.4444771   0.59403696    201.40912 
   13000   0.50007626   0.74998937   -4.1886302   -3.4386408   0.59882395     204.1251 
   13200   0.49863328   0.74782526   -4.2023184   -3.4544932   0.59469376    206.70805 
   13400   0.49981068   0.74959107    -4.203378    -3.453787   0.59558247    209.64204 
   13600   0.49961271   0.74929416   -4.1871903   -3.4378961   0.59862453      213.261 
   13800    0.5051219   0.75755657    -4.208667   -3.4511104   0.59744465    216.74753 
   14000   0.49083095   0.73612372   -4.2150629   -3.4789392   0.59213872    219.95854 
   14200   0.49841535   0.74749841   -4.1878772   -3.4403788   0.59778835    222.74813 
   14400   0.50933055    0.7638685    -4.183915   -3.4200465   0.59887822    225.30768 
   14600   0.50509151   0.75751099   -4.1979945   -3.4404835   0.59336138     228.0672 
   14800   0.49303149   0.73942398    -4.213131    -3.473707   0.58991208    231.15754 
   15000    0.4975787   0.74624366   -4.1993471   -3.4531034     0.591527    234.93422 
   15200    0.5020884   0.75300708   -4.1825106   -3.4295035   0.59511462    238.26787 
   15400   0.49623711   0.74423161   -4.2049908   -3.4607592    0.5944902     241.2039 
   15600   0.49742871   0.74601871    -4.213199   -3.4671803   0.59351421    243.95381 
   15800   0.49106967   0.73648174   -4.1944707    -3.457989   0.59837681     246.5187 
   16000   0.50153207   0.75217273    -4.186089   -3.4339163   0.59591597    249.37048 
   16200    0.5032097   0.75468875   -4.2005566   -3.4458678   0.59289222    251.95952 
   16400   0.50391522   0.75574685   -4.2067419   -3.4509951   0.59410727    254.43465 
   16600   0.49995911   0.74981367   -4.2040037     -3.45419   0.59389371    256.57656 
   16800   0.49828935   0.74730945   -4.1954313   -3.4481219   0.60027559    258.76302 
   17000   0.49919736   0.74867124    -4.188669   -3.4399978   0.59884244    261.28172 
   17200   0.49337664   0.73994161   -4.2130317   -3.4730901   0.59051369     263.5693 
   17400   0.50967026   0.76437798   -4.2129702   -3.4485923    0.5919941    265.71471 
   17600   0.50180874   0.75258766   -4.1979439   -3.4453562   0.59325578     268.1422 
   17800   0.49957451   0.74923688   -4.2050942   -3.4558573   0.58866379    270.78643 
   18000   0.50074028   0.75098524   -4.1925606   -3.4415754   0.59584744    273.03861 
   18200    0.5023076   0.75333582    -4.189947   -3.4366112   0.59439055    275.72432 
   18400   0.49707305   0.74548531   -4.2009395   -3.4554541   0.59433912    278.51111 
   18600   0.50134814   0.75189687   -4.1983045   -3.4464077   0.59815819    281.95469 
   18800    0.4961183   0.74405342   -4.1922935   -3.4482401   0.59421745    285.40912 
   19000   0.49920808   0.74868732   -4.2087518   -3.4600645   0.59502845    288.38162 
   19200   0.49309758   0.73952309   -4.1970844   -3.4575613   0.59246998    291.75341 
   19400   0.50567357   0.75838394   -4.1812996   -3.4229156   0.59388632    295.19849 
   19600   0.50105129   0.75145167   -4.1907431   -3.4392914   0.59603757     299.1239 
   19800    0.4908415   0.73613954   -4.1984715    -3.462332   0.59314852    302.39736 
   20000   0.49958438   0.74925167   -4.1750186   -3.4257669   0.59730286    305.33691 
Loop time of 305.337 on 1 procs for 20000 steps with 6000 atoms

Performance: 565932.189 tau/day, 65.501 timesteps/s
99.9% CPU use with 1 MPI tasks x no OpenMP threads

MPI task timing breakdown:
Section |  min time  |  avg time  |  max time  |%varavg| %total
---------------------------------------------------------------
Pair    | 285.74     | 285.74     | 285.74     |   0.0 | 93.58
Neigh   | 8.1766     | 8.1766     | 8.1766     |   0.0 |  2.68
Comm    | 2.4706     | 2.4706     | 2.4706     |   0.0 |  0.81
Output  | 0.304      | 0.304      | 0.304      |   0.0 |  0.10
Modify  | 6.9771     | 6.9771     | 6.9771     |   0.0 |  2.29
Other   |            | 1.669      |            |       |  0.55

Nlocal:    6000 ave 6000 max 6000 min
Histogram: 1 0 0 0 0 0 0 0 0 0
Nghost:    7503 ave 7503 max 7503 min
Histogram: 1 0 0 0 0 0 0 0 0 0
Neighs:    336510 ave 336510 max 336510 min
Histogram: 1 0 0 0 0 0 0 0 0 0

Total # of neighbors = 336510
Ave neighs/atom = 56.085
Neighbor list builds = 356
Dangerous builds = 0
Total wall time: 0:05:05
