LAMMPS (11 Aug 2017)
# Nuclear model with 75% neutrons and 25% protons
# Run to generate equilibrium position

units             lj
atom_style        atomic

pair_style        table linear 5000
boundary          p p p

read_data	  data.input_ZNyN
  orthogonal box = (0 0 0) to (42.2 42.2 42.2)
  1 by 1 by 1 MPI processor grid
WARNING: Atom style in data file differs from currently defined atom style (../read_data.cpp:493)
  reading atoms ...
  6000 atoms
  reading velocities ...
  6000 velocities

neighbor          1.2 bin
neigh_modify      every 1 delay 0 check yes one 8000 page 80000

timestep          0.1

thermo_style      custom step temp ke epair etotal press cpu
thermo            200
pair_coeff        1 1 pandha_msc.table NN 5.4
pair_coeff        1 2 pandha_msc.table NP 5.4
pair_coeff        2 2 pandha_msc.table PP 5.4

variable          p_step equal step
variable          p_temp equal temp
variable          p_ke equal ke
variable          p_epair equal epair
variable          p_tot equal etotal

fix               escribir all print 200 "${p_step} ${p_temp} ${p_ke} ${p_epair} ${p_tot}" file thermo.dat screen no title "step  temp ke epair etotal"

dump              myDUMP all custom 2000 eq_t_1_*.lammpstrj id type x y z vx vy vz
fix               1 all nvt temp 1.0 1.0 10.0

run 20000
Neighbor list info ...
  update every 1 steps, delay 0 steps, check yes
  max neighbors/atom: 8000, page size: 80000
  master list distance cutoff = 6.6
  ghost atom cutoff = 6.6
  binsize = 3.3, bins = 13 13 13
  1 neighbor lists, perpetual/occasional/extra = 1 0 0
  (1) pair table, perpetual
      attributes: half, newton on
      pair build: half/bin/atomonly/newton
      stencil: half/bin/3d/newton
      bin: standard
Per MPI rank memory allocation (min/avg/max) = 5.927 | 5.927 | 5.927 Mbytes
Step Temp KinEng E_pair TotEng Press CPU 
       0    1.0325194    1.5485209    4.8494575    6.3979784    1.3964372            0 
     200    2.3812244    3.5712413    1.3529201    4.9241614    1.1981078    2.7902498 
     400    2.1634704    3.2446647   -1.3280422    1.9166224   0.92770939    5.7440288 
     600     1.557083    2.3352353   -2.7628753  -0.42763998   0.78863705    8.7870979 
     800    1.1028062    1.6539335   -3.3406884   -1.6867549   0.74547599    11.859382 
    1000   0.93662154    1.4046982   -3.5425769   -2.1378787   0.74924972    14.641026 
    1200     1.010251    1.5151239   -3.4200204   -1.9048964   0.77264744    17.581373 
    1400    1.0470765     1.570353   -3.3698793   -1.7995263   0.76309311    21.069936 
    1600   0.97029295    1.4551969   -3.5314173   -2.0762205   0.70696174    25.198379 
    1800   0.97385464    1.4605385   -3.5168106   -2.0562721    0.6765427    28.531486 
    2000    1.0101184     1.514925   -3.3703703   -1.8554453   0.66873307    31.589744 
    2200   0.99096915     1.486206   -3.2538484   -1.7676424   0.66859798    34.139409 
    2400    1.0040073    1.5057599   -3.2301713   -1.7244114   0.66813641    37.172027 
    2600    1.0026229    1.5036836   -3.2682423   -1.7645586   0.67289693    41.100955 
    2800   0.98836614    1.4823021   -3.3269893   -1.8446871    0.6752361    45.232211 
    3000    1.0037778    1.5054157   -3.3734101   -1.8679944   0.68324708    48.427514 
    3200   0.98950187    1.4840054   -3.3759618   -1.8919564   0.68702263    51.284602 
    3400   0.99940863    1.4988631    -3.347085   -1.8482219   0.69199472    55.579745 
    3600    1.0058323     1.508497   -3.3620977   -1.8536007   0.68724245    59.952169 
    3800    1.0046229    1.5066832   -3.3864651   -1.8797819   0.68009278    64.721696 
    4000   0.97724474    1.4656228   -3.3506017   -1.8849789   0.68083763     68.93124 
    4200   0.99891787    1.4981271   -3.3313618   -1.8332347   0.68028035    73.367582 
    4400    0.9919347    1.4876541   -3.3362391    -1.848585   0.67216827    77.885187 
    4600    0.9982076    1.4970619   -3.3303585   -1.8332967   0.67227412    81.032508 
    4800     1.012521    1.5185283   -3.3172905   -1.7987622   0.67379763    83.837214 
    5000     1.006954    1.5101792   -3.3441057   -1.8339265   0.67069495    87.013924 
    5200   0.97781999    1.4664855   -3.3404047   -1.8739192   0.67300352    89.769363 
    5400    1.0156338    1.5231968   -3.3068983   -1.7837016   0.68294216    92.787148 
    5600   0.99811291    1.4969198   -3.3116165   -1.8146966   0.67867522    95.924414 
    5800   0.98949688     1.483998   -3.3481294   -1.8641315   0.67506965    98.723677 
    6000    1.0081534    1.5119781   -3.3231746   -1.8111966    0.6776002    101.79962 
    6200    1.0040343    1.5058004   -3.3133096   -1.8075092   0.67674755    104.70127 
    6400   0.99509399    1.4923922   -3.3177953    -1.825403   0.67437479    107.43147 
    6600    1.0069155    1.5101215   -3.3232455    -1.813124   0.67338498    110.56135 
    6800     0.999714    1.4993211    -3.336612    -1.837291   0.66888041    113.58278 
    7000    1.0051886    1.5075317   -3.3288562   -1.8213245    0.6724589    116.46657 
    7200    1.0111695    1.5165014   -3.3135536   -1.7970522   0.67811824    119.53837 
    7400    1.0011281    1.5014419   -3.3053276   -1.8038857    0.6729559    122.28697 
    7600    1.0021625    1.5029933   -3.3295922   -1.8265989    0.6658559    124.89127 
    7800    1.0118024    1.5174507   -3.3196686    -1.802218    0.6774068    127.29952 
    8000    1.0005285    1.5005427   -3.3365715   -1.8360288   0.67177472    130.12633 
    8200    1.0021245    1.5029362   -3.3150072    -1.812071   0.67285728    133.21793 
    8400    1.0008828     1.501074     -3.31796    -1.816886   0.67478135    136.59986 
    8600   0.99387597    1.4905655    -3.303091   -1.8125255    0.6713634     139.6789 
    8800    0.9994537    1.4989307   -3.2838775   -1.7849468   0.67680266    142.48461 
    9000   0.99784449    1.4965173   -3.3173665   -1.8208492   0.67529652    145.59379 
    9200   0.99992333     1.499635   -3.3245517   -1.8249167   0.66887235    148.56869 
    9400    1.0068293    1.5099923   -3.2844842   -1.7744919   0.67598626    151.27633 
    9600   0.99567456    1.4932629   -3.3070673   -1.8138044   0.67393126    153.75361 
    9800    1.0151475    1.5224674   -3.3258091   -1.8033417   0.67394731    156.25267 
   10000    1.0060546    1.5088304   -3.3003127   -1.7914822   0.67149692    159.01753 
   10200    1.0047144    1.5068204   -3.2829508   -1.7761304   0.67558088    162.48917 
   10400   0.98885498    1.4830353   -3.2990736   -1.8160383    0.6684521    165.74611 
   10600   0.99695951      1.49519   -3.2948123   -1.7996223   0.66587745    168.72116 
   10800    1.0073712     1.510805   -3.2591029   -1.7482979   0.67249726    171.48694 
   11000     0.988164     1.481999   -3.2909013   -1.8089023   0.66867932    174.18253 
   11200    1.0034069    1.5048594   -3.2741301   -1.7692707   0.66615194    176.58011 
   11400   0.98805333     1.481833   -3.2584441   -1.7766111   0.66622122    179.29036 
   11600    1.0082513    1.5121249   -3.2684882   -1.7563633   0.67208711    182.73745 
   11800   0.98192632     1.472644   -3.2830483   -1.8104043   0.66664659    186.26459 
   12000    1.0112582    1.5166345   -3.2851387   -1.7685042   0.67396206    189.24393 
   12200    1.0027351    1.5038519   -3.2800109    -1.776159   0.66669828    191.94025 
   12400   0.99151092    1.4870185   -3.3067133   -1.8196948    0.6622805    194.95937 
   12600    1.0073264    1.5107378   -3.2789369   -1.7681991   0.67089435    197.75008 
   12800    1.0207357    1.5308484   -3.2677323   -1.7368839    0.6698549    200.39208 
   13000   0.99046677    1.4854525   -3.2802152   -1.7947626   0.66557636    202.82164 
   13200    0.9903662    1.4853017   -3.2862572   -1.8009555   0.66432647     205.3278 
   13400    1.0128827    1.5190709   -3.2841149    -1.765044   0.67066805    207.97866 
   13600    1.0006901     1.500785   -3.2794531   -1.7786682   0.66410404     211.5142 
   13800    1.0173534    1.5257758   -3.2678665   -1.7420906   0.67277007    214.71755 
   14000   0.98810385    1.4819088    -3.269631   -1.7877222    0.6679488     217.5535 
   14200   0.98785604    1.4815371   -3.2656679   -1.7841308   0.66648082    220.10749 
   14400    1.0184954    1.5274885   -3.2763701   -1.7488816    0.6659967    222.39526 
   14600    0.9936513    1.4902285   -3.2977065    -1.807478   0.67002395    224.61017 
   14800    1.0138295    1.5204908    -3.266346   -1.7458552   0.66959787    226.61007 
   15000    0.9924063    1.4883613   -3.2507849   -1.7624235   0.66410432    228.69577 
   15200     1.009475    1.5139601   -3.2542299   -1.7402698   0.67039092    230.94984 
   15400   0.99051309     1.485522   -3.2490462   -1.7635241    0.6637895    233.07441 
   15600    1.0011987    1.5015478   -3.2774396   -1.7758918   0.66894727    235.03689 
   15800   0.98399316    1.4757437   -3.2734998    -1.797756   0.66322502    237.28172 
   16000    1.0156538    1.5232268   -3.2827167   -1.7594899   0.67208032    239.84937 
   16200     1.000517    1.5005254   -3.2602685   -1.7597431   0.66613385    242.88703 
   16400    1.0079095    1.5116123   -3.2625481   -1.7509358   0.67317844    245.65085 
   16600   0.99610107    1.4939026    -3.278344   -1.7844414   0.66788084    248.22218 
   16800   0.99121738    1.4865783   -3.2496552   -1.7630769   0.66579719    250.52069 
   17000    1.0091587    1.5134857   -3.2571611   -1.7436754   0.66725516    252.73533 
   17200   0.99636646    1.4943006   -3.2896928   -1.7953922    0.6642608     254.6625 
   17400   0.99464601    1.4917203   -3.2594964    -1.767776   0.67011561    256.69097 
   17600    1.0038319    1.5054969   -3.2430517   -1.7375548   0.66690631    258.97646 
   17800   0.98233759    1.4732608   -3.2635626   -1.7903018   0.66660594    261.12919 
   18000     1.005415    1.5078712   -3.2809658   -1.7730946   0.66385921    263.65904 
   18200   0.99242983    1.4883966   -3.2586728   -1.7702762    0.6677988    267.50216 
   18400   0.99860128    1.4976523   -3.2348043    -1.737152   0.67303891    271.97846 
   18600    1.0043555    1.5062821   -3.2785017   -1.7722196   0.66189149    275.26086 
   18800   0.98992696     1.484643   -3.2997516   -1.8151086   0.66047236    278.61009 
   19000    1.0007847    1.5009269   -3.2408561   -1.7399292   0.66579522    282.95596 
   19200    1.0003676    1.5003012   -3.2594766   -1.7591754    0.6658434    287.17358 
   19400    1.0031082    1.5044115   -3.2873805   -1.7829691   0.66468305    289.60111 
   19600    1.0055518    1.5080764   -3.2632465   -1.7551701   0.66162036    291.92954 
   19800    1.0078059    1.5114568   -3.2420746   -1.7306177   0.66850974      294.944 
   20000    1.0122482    1.5181193   -3.2572192      -1.7391   0.66386815     297.7787 
Loop time of 297.779 on 1 procs for 20000 steps with 6000 atoms

Performance: 580296.658 tau/day, 67.164 timesteps/s
99.9% CPU use with 1 MPI tasks x no OpenMP threads

MPI task timing breakdown:
Section |  min time  |  avg time  |  max time  |%varavg| %total
---------------------------------------------------------------
Pair    | 274.2      | 274.2      | 274.2      |   0.0 | 92.08
Neigh   | 11.738     | 11.738     | 11.738     |   0.0 |  3.94
Comm    | 2.6478     | 2.6478     | 2.6478     |   0.0 |  0.89
Output  | 0.35339    | 0.35339    | 0.35339    |   0.0 |  0.12
Modify  | 7.0872     | 7.0872     | 7.0872     |   0.0 |  2.38
Other   |            | 1.751      |            |       |  0.59

Nlocal:    6000 ave 6000 max 6000 min
Histogram: 1 0 0 0 0 0 0 0 0 0
Nghost:    7689 ave 7689 max 7689 min
Histogram: 1 0 0 0 0 0 0 0 0 0
Neighs:    298795 ave 298795 max 298795 min
Histogram: 1 0 0 0 0 0 0 0 0 0

Total # of neighbors = 298795
Ave neighs/atom = 49.7992
Neighbor list builds = 500
Dangerous builds = 0
Total wall time: 0:04:57
