ITEM: TIMESTEP
1000
ITEM: NUMBER OF ATOMS
6000
ITEM: BOX BOUNDS pp pp pp
0.0000000000000000e+00 4.2200000000000003e+01
0.0000000000000000e+00 4.2200000000000003e+01
0.0000000000000000e+00 4.2200000000000003e+01
ITEM: ATOMS id type x y z vx vy vz 
2707 1 0.355649 2.06756 1.88232 -0.010818 0.0320374 0.0275139 
2868 1 2.63427 1.50222 3.00175 0.0448712 0.00246902 0.0310048 
2993 1 6.49761 2.58311 0.201485 -0.0289545 -0.00668946 -0.0123933 
2994 1 6.08326 0.233651 1.0021 0.0680359 -0.0378869 -0.00226692 
2998 1 4.83712 2.06799 1.93805 -0.0633323 -0.052113 0.0283097 
5356 2 4.81401 2.47092 0.430064 -0.0559444 0.0138265 0.0274536 
2747 1 8.68256 1.61669 0.639327 -0.00104767 0.0690808 0.0160883 
2990 1 10.4114 2.25094 2.4564 -0.0325631 -0.0290237 0.0476087 
2983 1 13.5127 3.22455 0.820029 -0.000388106 -0.0373406 0.012245 
2857 1 14.2672 1.09528 0.0172817 -0.0614427 0.0313487 -0.0117893 
2959 1 16.783 2.4257 1.6387 0.0148351 -0.0264787 0.0742973 
2855 1 14.7351 0.932346 2.66769 -0.0139526 -0.0137912 -0.0598702 
5362 2 16.8829 2.08539 0.160479 0.0233729 0.00279704 -0.0711897 
2854 1 19.439 2.15778 1.3231 -0.0704791 0.00227639 -0.0159537 
2468 1 17.6413 0.322207 2.99542 0.0387102 -0.0312723 0.00730649 
4222 2 20.8333 0.236102 0.00866636 0.0504246 -0.0161551 -0.00102386 
1498 1 21.915 3.03879 1.27184 -0.00286381 0.058898 -0.0123762 
510 1 21.6509 0.0565202 1.41938 -0.0307839 0.0125055 -0.0039637 
1365 1 23.5841 1.06686 3.14408 -0.0132417 -0.0204164 0.0176216 
1366 1 24.3242 3.45496 2.06451 -0.00268292 -0.0850771 -0.0392666 
1494 1 26.1039 2.40328 0.241488 -0.0607387 0.0559338 -0.00513991 
113 1 26.722 0.109322 0.791346 0.0535602 -0.0287693 0.0198921 
1367 1 26.1699 1.84795 3.05073 0.0315151 -0.0254819 -0.0318141 
3877 2 24.7994 3.28915 0.636016 -0.0168805 -0.0160119 -0.0121626 
1490 1 31.1 2.73182 0.680716 0.0152951 -0.00597913 -0.00752651 
1491 1 28.7377 1.48175 0.0746052 -0.0451648 0.00347841 -0.000363827 
989 1 30.645 0.569754 1.99046 0.00327727 0.0538842 0.00133948 
1364 1 28.9011 2.52774 2.72691 0.0291189 -0.039088 -0.0402516 
4492 2 31.1842 0.887188 0.491069 -0.00324407 -0.0248742 -0.023515 
1486 1 33.2155 1.93236 1.94336 -0.00242001 0.00121309 0.0245928 
3866 2 33.8749 2.76969 0.82758 0.037307 0.0102642 -0.0466811 
1420 1 37.4826 2.89583 1.5675 0.00128978 0.0313062 -0.0301229 
1484 1 35.4266 1.4976 0.885782 -0.0235419 0.0425164 0.0528415 
4491 2 36.6585 2.31571 0.437615 -0.00403053 0.0193565 -0.0179359 
1480 1 39.8447 2.6508 2.06175 -0.0194961 0.0339549 0.031247 
2978 1 1.27007 6.81841 0.833224 -0.0267847 -0.0448238 -0.00973684 
2999 1 2.16127 3.86509 1.11693 0.0291542 0.00714982 -0.0224112 
2979 1 3.31262 6.17822 1.75327 -0.114184 0.0371287 -0.00589058 
2976 1 4.54198 4.06852 0.126941 -0.00504307 -0.0200707 0.00380839 
2846 1 5.26302 6.67098 3.3026 0.0446306 -0.00317393 -0.0261459 
2975 1 6.40485 4.58462 1.93968 0.0450889 -0.0515986 0.00412273 
2842 1 7.75627 6.58896 1.02444 -0.0433045 -0.0124054 0.00389561 
2841 1 10.2468 6.0462 1.86634 0.00398133 0.037964 0.0437561 
2991 1 8.76397 4.26259 3.00427 -0.0607863 -0.0259166 0.0182279 
2964 1 10.9196 3.87017 0.237708 0.0319616 0.052014 0.0327852 
2985 1 12.8113 5.38492 2.45012 0.045525 0.0143665 0.00930993 
2834 1 15.4061 4.85881 1.78279 -0.0552916 -0.0263494 0.0141145 
2962 1 16.5198 6.73582 0.475839 -0.07562 -0.0145604 -0.0236721 
2629 1 20.098 4.60628 1.65551 0.030666 -0.00593475 0.0108727 
2960 1 18.0193 4.43795 0.473726 0.0289874 0.0494631 -0.0302381 
2816 1 17.7233 5.70016 3.18489 -0.030318 0.030332 0.00178935 
5346 2 19.3424 3.59488 0.718583 0.0683687 0.0927159 0.0390888 
1350 1 22.7584 5.56874 0.934537 -0.0178821 -0.0120323 -0.041787 
1344 1 25.4948 4.72346 0.112414 -0.00737974 -0.000967847 -0.00771101 
1239 1 26.9301 4.27516 3.27657 -0.00497148 -0.0416153 -0.0282617 
1326 1 27.3089 6.79271 1.23167 0.0457595 0.0153182 -0.00329295 
1342 1 24.9515 5.84903 2.9681 -0.0225233 0.0658916 0.0174866 
1470 1 30.6867 5.3638 0.697189 0.0389044 -0.0942776 -0.028069 
1473 1 28.2268 4.26289 0.309376 -0.0757037 -0.0297783 0.00488583 
1341 1 31.004 4.072 3.28665 0.00753468 0.00149011 -0.00642625 
1345 1 28.9802 5.75832 3.09151 -0.0508006 0.0239869 -0.0325156 
4467 2 31.509 4.20934 0.302175 -0.0377429 0.0137473 -0.0378459 
1467 1 33.0284 4.14892 0.00904928 0.0497898 -0.000556195 0.0123442 
1336 1 31.8165 7.02319 2.42188 0.0313173 0.0528182 0.00537269 
1333 1 34.6574 6.02666 3.47667 0.0254832 -0.0380929 -0.00969739 
1338 1 33.0647 4.57511 2.25134 0.0136363 0.0394634 -0.0199098 
1334 1 36.8936 5.53904 0.192625 -0.035074 0.0745425 -0.019638 
1359 1 35.1935 3.84571 1.2789 -0.0422437 0.0384353 0.0139315 
1479 1 36.9712 4.68032 3.45363 -0.0459102 0.0140073 0.0137097 
4487 2 35.5013 4.83175 0.169542 -0.0488244 0.00194952 0.00701146 
3836 2 38.3891 6.01588 0.336624 -0.0462736 -0.0255511 -0.0227571 
1390 1 41.7995 4.72498 1.40128 -0.0125492 0.0165426 -0.0273587 
1462 1 39.311 4.8244 0.432266 0.0152447 0.000145781 0.0240935 
1331 1 39.2737 5.8608 2.96188 -0.00608882 -0.0241575 0.0264754 
2955 1 1.17538 9.24273 1.51631 0.0167064 0.0773084 -0.00842337 
5352 2 2.89316 7.33807 0.723959 0.0467951 -0.00550209 0.0766205 
2824 1 6.48484 8.62467 0.110086 0.0399497 0.00544352 -0.0133899 
2972 1 3.81485 8.57883 1.32144 -0.00208134 0.0699629 0.0141189 
2820 1 6.81512 8.77394 2.49434 0.0133988 -0.0455322 0.018593 
2952 1 9.19235 8.47655 2.52656 -0.0216653 0.0422636 -0.000751198 
5336 2 7.53787 9.32791 1.21621 0.0844249 0.0502973 -0.010367 
2948 1 10.8937 8.3461 0.474165 0.00226972 -0.0328766 0.0264932 
2797 1 13.7108 10.303 2.70585 0.0714807 0.0416013 0.0115559 
2818 1 12.337 8.03624 2.9158 0.0658472 -0.0239497 0.0186655 
2947 1 15.2117 8.23499 1.72627 0.0392622 -0.0281438 -0.0310732 
5946 2 16.4884 8.29455 0.551866 0.0702266 0.0293688 -0.0430633 
2943 1 17.9005 8.9272 0.133465 -0.0237644 0.00659969 0.0284419 
2892 1 20.5305 7.09775 2.37394 -0.0173477 -0.0140594 0.00140271 
2940 1 18.0367 8.16889 2.44208 -0.032017 -0.0263634 -0.0214887 
1062 1 20.9 9.7239 2.91181 -0.0178541 0.0368941 0.0139885 
1328 1 23.1108 8.49767 1.22875 0.0122837 -0.0190007 -0.0159326 
1459 1 24.9836 7.0762 0.771355 0.0172372 0.0263668 0.0553525 
1329 1 27.2599 9.41298 2.88297 0.00581178 -0.0115758 -0.0153307 
1455 1 25.1801 9.88658 1.24917 0.0393238 -0.0230443 0.0297924 
3964 2 24.8871 8.59447 0.50005 -0.0763069 -0.0177595 0.0571176 
1472 1 29.4213 8.24027 2.03081 -0.0367041 -0.00259669 0.00329662 
3827 2 28.1902 7.95015 0.436388 0.00346047 0.0338558 -0.0422251 
1315 1 33.9321 7.11234 0.762623 0.0269873 -0.0341131 -0.091064 
1448 1 32.5381 9.5504 1.21541 -0.0149576 0.00137955 0.0592917 
1316 1 33.978 8.70191 3.08875 -0.0164879 -0.00483226 0.061345 
3952 2 33.6376 9.63294 0.154884 0.0362228 0.0686714 0.0399721 
1317 1 35.1844 9.81098 0.463442 -0.00258695 -0.0203566 -0.0204589 
1426 1 37.3589 10.0818 1.19022 0.0135965 -0.0441583 0.00477512 
1444 1 38.3715 7.53582 0.169218 0.0116598 -0.0103988 -0.0530866 
1312 1 38.3041 8.32189 2.9928 0.0177451 0.06328 -0.0570038 
1313 1 36.3368 7.25164 1.74575 -0.00244219 -0.034726 -0.00230658 
1311 1 41.1184 9.57247 2.98754 -0.0153529 0.0379411 0.0243202 
1421 1 39.9411 10.1241 0.448777 -0.00650867 -0.0375886 -0.00911392 
1461 1 40.6615 7.39887 1.09855 0.00112379 0.00855467 0.000967391 
2827 1 2.85065 11.1536 0.238638 0.0412892 -0.0259416 -0.0602563 
2808 1 2.78658 10.6051 3.34345 -0.0424845 0.00218202 -0.0111497 
2610 1 0.486634 11.7435 2.57368 0.00901023 0.0262551 0.0119611 
2803 1 3.07672 12.9796 1.72814 0.00438076 -0.0131725 0.044063 
2805 1 5.48884 13.5068 0.903343 0.00265808 0.00860137 0.023014 
2806 1 5.53158 10.9482 1.28039 -0.013568 -0.0036212 -0.0014642 
2801 1 6.31413 14.0549 3.2298 0.00765393 0.0376523 -0.0238719 
5939 2 4.46592 11.2375 0.0851225 0.0120693 0.00307785 0.0361015 
2932 1 9.16692 12.4979 0.191086 -0.0123982 0.019983 -0.00860732 
2927 1 10.1892 13.7013 2.01513 -0.03031 -0.0316427 -0.0142761 
2950 1 8.25737 10.7402 1.8187 0.0211925 0.0255221 0.019536 
5951 2 9.43917 10.9641 0.00111102 -0.0156415 -0.0313573 -0.0308186 
2922 1 13.4674 12.0322 0.777941 0.00637156 0.0225566 -5.85636e-05 
2799 1 10.8316 10.7004 2.05106 -0.0605431 -0.00778005 0.0341264 
2796 1 12.4325 12.7584 2.9361 -0.0810877 0.0317404 0.0023097 
2920 1 16.0017 10.6867 0.992313 -0.0497443 0.0427681 -0.0313458 
2924 1 15.4098 13.5059 0.466072 -0.0782658 0.00314039 -0.0157882 
2793 1 15.412 12.2678 3.25151 -0.0314984 -0.0218453 0.00985648 
2792 1 17.1711 14.0342 2.52474 0.0341737 -0.0302579 0.0345025 
5921 2 14.9909 11.776 0.363428 -0.00518338 0.00715727 0.0266475 
2794 1 17.5953 12.4041 0.406428 0.00469693 0.00885856 -0.0229388 
2790 1 18.9186 10.7263 1.34195 0.00294489 -0.0090724 -0.0445446 
2919 1 19.6656 13.9927 0.816847 -0.0764955 0.0903108 -0.0198649 
2850 1 20.9666 12.6029 2.29147 -0.000328673 -0.0464849 -0.00528827 
1308 1 23.3608 13.4418 1.18561 -0.00319767 0.0451921 -0.0570381 
1440 1 23.0758 11.0555 1.70852 0.015867 0.0699726 0.0279126 
3794 2 21.125 13.5533 0.408773 0.0375763 -0.0120718 0.000865798 
1325 1 27.4837 10.8119 0.594972 -0.069024 0.0531949 -0.0561179 
1303 1 25.5329 12.7702 2.11347 0.00369978 0.0232485 -0.0244681 
3831 2 24.6812 12.8233 0.729434 0.00335127 0.0449714 0.000157837 
1298 1 30.0993 10.6904 1.22048 0.0212878 -0.0152314 -0.0399802 
1301 1 28.4598 12.9549 2.02529 -0.00893852 0.0346377 0.00456111 
1430 1 31.7654 12.9308 1.04167 -0.0389705 0.0252874 0.0364655 
4419 2 32.707 13.7512 0.00312369 -0.0019192 -0.035214 -0.0049291 
1297 1 31.9262 11.5232 3.33053 -0.00512365 0.0419696 -0.0307794 
1427 1 34.3917 11.7983 1.96926 -0.00990312 -0.0271782 0.0282402 
1272 1 36.3778 13.8762 1.53132 0.0101 0.00729793 -0.0349444 
1291 1 37.5086 12.0137 2.91673 0.00212848 0.0193962 -0.00609586 
3800 2 38.1131 13.6919 0.232895 0.0516589 0.00108818 -0.0165493 
3817 2 36.4904 10.7751 0.0897325 -0.00318881 0.0151337 -0.0281695 
1397 1 41.4661 11.9905 0.0658878 -0.0278015 0.00269057 0.026663 
1424 1 39.0972 12.7503 0.977366 0.0490925 0.0244244 -0.0243996 
1285 1 41.5709 13.9949 2.04814 0.0830945 0.0753206 0.0016501 
2917 1 1.39008 16.8944 0.31941 -0.0451366 -0.00984067 -0.037889 
2785 1 1.60835 15.2494 2.60572 -0.0297294 0.0108023 0.0393335 
2787 1 3.3743 17.1035 1.92145 0.0140325 0.0300342 0.0147582 
5300 2 3.11596 16.9081 0.42111 -0.0375829 -0.0535016 -0.0440625 
2766 1 5.3781 16.0116 0.935288 -0.00528854 -0.0163021 -0.0143322 
5933 2 6.41763 14.7782 0.565097 -0.0164663 0.00975024 -0.0581526 
2908 1 7.84202 14.2752 1.11138 -0.0159967 0.00784565 0.0467685 
2909 1 7.72687 16.8524 0.86123 0.0307373 -0.0357406 -0.0285699 
2907 1 10.0762 16.2054 1.39344 0.00640131 -0.0125854 0.0161483 
5904 2 9.59702 14.0974 0.634553 0.013258 -0.0262749 0.0231368 
2905 1 12.5911 15.3757 1.23607 -0.0290572 -0.00410398 -0.000260856 
5292 2 11.7543 16.6747 1.03945 0.011192 0.00180198 0.0106837 
2899 1 15.0996 15.9931 0.652803 -0.00111939 -0.0637709 0.00823537 
2778 1 14.2193 14.5396 3.02077 0.037831 -0.0161049 0.00232814 
2896 1 17.6143 16.3247 1.3386 -0.0109834 0.0572139 0.0622547 
2875 1 19.8853 17.1118 2.4873 0.040672 -0.0735431 0.0574668 
1417 1 22.4694 17.2165 1.41812 -0.0322701 0.0444991 -0.0256479 
1439 1 21.9142 14.9072 0.0954695 0.0289362 0.0301321 0.0381718 
860 1 22.0425 15.0853 3.16877 0.069985 -0.0124564 -0.0207655 
1280 1 26.976 14.9925 0.911807 -0.0260927 -0.0250322 -0.0472096 
1282 1 24.6854 15.5838 2.34703 0.0338014 0.0564376 -0.0016257 
1266 1 26.8506 17.4136 2.61042 -0.00712832 0.0411192 0.00587373 
1409 1 30.3593 17.3251 0.821241 0.0103481 0.0083846 0.0169272 
1410 1 30.0246 14.7022 0.664737 -0.0331392 -0.0180386 -0.0524449 
1277 1 29.1327 15.8421 2.89432 0.00170405 -0.0262181 -0.00523015 
4417 2 30.5596 16.0133 0.0417091 -0.00830351 -0.0121892 0.01419 
1407 1 33.7701 14.18 1.12203 -0.00352006 0.0620033 0.0150873 
1406 1 32.9362 16.619 0.587897 0.0200071 0.0304569 -0.0114049 
1148 1 34.8828 15.5859 3.25374 -0.0190266 0.0407266 -0.0533298 
1275 1 31.9686 15.7372 2.79298 -0.0123389 -0.0539839 -0.0233001 
1429 1 35.3243 15.8823 0.457526 -0.0443865 -0.00997873 -0.045317 
1273 1 36.6548 17.2755 1.86247 -0.00202313 -0.0128034 0.0272431 
4204 2 35.3436 14.2695 0.442468 0.0608352 0.00808831 0.0180737 
1003 1 41.4553 16.8208 1.95197 0.0195261 -0.0584076 0.00499979 
1396 1 39.4418 15.3434 1.02713 -0.0218349 -0.0409394 0.0101606 
4382 2 42.0083 17.1706 0.585756 0.00152103 -0.0432225 -0.00147662 
2980 1 2.21544 19.4257 1.75706 0.0072736 -0.00399748 0.0379055 
5886 2 3.103 20.1228 0.332751 0.0281161 -0.0278976 0.0331721 
2911 1 5.24413 18.9339 0.679478 -0.000204966 0.000747914 -0.0134015 
2763 1 6.66882 20.4329 2.63982 0.0315169 0.0115386 0.00236376 
2765 1 4.53087 19.0653 3.44141 -0.000767426 -0.00071989 -0.0127305 
2762 1 8.18679 19.4331 0.698535 -0.00757975 -0.0703031 0.00372403 
2888 1 10.4742 20.6777 1.71416 -0.00338241 0.0208698 -0.0471996 
2760 1 7.44838 18.0846 3.29936 0.0144129 -0.0119795 -0.0314121 
2761 1 9.8483 19.0236 3.41858 -0.0413526 -0.0342433 -0.00158857 
2597 1 13.3744 20.1003 0.976344 0.0401143 -0.0388166 -0.0252077 
2776 1 11.5646 18.0034 1.84544 -0.0159983 0.01578 -0.0239516 
2755 1 13.9331 17.6489 2.3266 -0.0606366 0.00795476 0.011178 
5896 2 14.0523 18.5792 0.578893 -0.0230696 0.0525038 0.0223873 
2877 1 15.7789 18.626 1.07128 -0.00617172 -0.00502451 -0.00944286 
2464 1 15.1336 20.3139 3.44981 0.0249769 -0.0134328 0.0301097 
2357 1 20.2873 20.3626 1.06713 0.0532649 0.0399076 0.00671612 
2873 1 18.4197 18.6103 0.586401 0.0269271 -0.000171549 -0.00827769 
2748 1 19.1959 19.6503 3.26303 0.00409702 0.0437167 -0.0241206 
1392 1 22.9019 19.6242 0.382761 0.0473451 0.0860164 -0.0244093 
1268 1 23.6797 20.7379 3.17477 0.00223639 0.0345761 0.0335589 
1419 1 25.1406 17.9774 0.35543 0.0126027 -0.00169422 -0.0478984 
1124 1 26.0942 20.0513 2.62933 0.00658199 -0.0133425 -0.0425128 
1384 1 30.1015 20.3629 0.876719 -0.0508752 0.0572545 -0.0303279 
896 1 28.5735 20.9584 3.43972 -0.0073922 0.019752 -0.0020657 
1263 1 29.1811 18.6285 2.82485 -0.0259738 -0.0402725 0.052206 
436 1 31.6415 20.7856 3.18066 0.0589682 -0.0257594 5.55828e-05 
754 1 33.4134 20.6025 0.344426 0.0183539 -0.0478073 -0.00685875 
1381 1 32.2152 18.7474 1.8145 0.0132242 0.00588827 -0.017403 
1259 1 34.7864 19.7763 2.2949 0.0267307 0.00640665 -0.00688935 
3779 2 34.9994 20.6595 0.242805 0.0250769 -0.0899941 0.0244448 
4398 2 32.6047 18.1547 0.552909 -0.0664147 -0.00944094 0.0684546 
1377 1 36.2376 19.5598 0.0500228 -0.0482668 0.00138101 0.0743636 
763 1 37.2494 20.4468 2.65503 -0.0226725 -0.0248011 0.0193123 
1374 1 41.971 18.9204 0.796518 0.0536239 -0.00293259 -0.00363261 
1395 1 38.8609 18.505 1.61122 -0.0108833 0.0124338 0.0256797 
577 1 40.057 20.7394 2.89683 -0.0328356 -0.00498468 0.00800483 
1756 1 0.808037 21.4859 0.965653 -0.0166613 -0.0534816 0.000826455 
2124 1 1.70724 24.2584 0.741898 0.00121522 -0.0611919 0.0116733 
1571 1 3.50267 21.3599 1.2822 -0.0516003 0.0115408 0.00838881 
2123 1 1.56783 22.8195 3.44383 -0.0897374 0.0292869 0.0248327 
2251 1 6.25737 21.8166 0.466508 -0.0527918 0.019907 -0.0212199 
1997 1 6.32747 22.9616 3.26881 0.00879675 -0.0179354 -0.0461394 
2252 1 3.85091 23.868 2.36519 -0.0579264 -0.0406792 -0.0294449 
2247 1 7.263 24.3834 1.10771 -0.0167646 0.0121611 -0.0595724 
2023 1 8.71822 22.3879 1.16232 -0.0149526 0.0164666 0.0141629 
5148 2 10.0009 21.7791 0.721805 -0.0601913 0.0205692 0.00493163 
1741 1 13.8213 22.7366 1.03967 -0.0213069 0.0379905 0.0416969 
2240 1 11.38 22.5896 0.710467 -0.0403232 -0.0724334 -0.0202523 
2114 1 12.5468 21.6528 3.17088 0.0105232 -0.0563282 0.0208395 
2245 1 10.7058 23.4494 3.19842 0.0467323 0.0554327 0.0444842 
2262 1 15.7539 21.1681 1.02162 -0.0556924 0.0115531 -0.0104127 
2235 1 16.0536 23.6545 1.18868 0.0717857 0.0184863 0.00849589 
2111 1 17.4721 21.4389 3.23189 -0.0328298 -0.0460607 -0.00530424 
4738 2 14.2852 21.3556 0.616762 0.0110981 0.0599464 -0.026196 
1719 1 20.7028 23.4191 1.91669 -0.0165833 0.0576862 0.0143255 
2239 1 18.6003 22.4237 0.83751 -0.000787123 -0.00179824 0.0455484 
2110 1 18.1287 23.9156 2.87996 -0.0441761 0.0261242 0.0265338 
5262 2 19.7336 23.6625 0.866197 0.0158052 0.0411458 -0.0200342 
622 1 22.5987 22.1638 1.23692 0.000989329 -0.0615213 -0.00993569 
727 1 23.4077 24.4139 1.69635 -0.0223053 -0.0283211 0.0411791 
3771 2 23.0091 23.5125 0.559437 -0.0158809 -0.0580008 -0.0416348 
619 1 27.2187 22.1995 1.31873 0.0282543 -0.0375724 0.0422653 
3147 2 26.1251 23.3165 1.11034 -0.0441428 -0.0148166 0.00019622 
602 1 25.2401 22.9621 2.38044 -0.0283898 -0.00109298 -0.0195226 
129 1 29.6822 22.6385 1.61667 0.018334 -0.00966992 -0.0300503 
3011 2 29.733 22.352 0.153642 -0.0211524 -0.039181 0.0287204 
612 1 31.7024 23.6378 2.77703 0.000197982 -0.0483221 -0.0374287 
589 1 33.9935 22.1872 2.76013 0.0183591 -0.0436352 0.00517232 
731 1 38.4521 22.353 1.27414 -0.0339047 0.0317423 0.00765203 
734 1 35.5571 22.1289 0.432392 -0.0202487 -0.0220816 -0.00247192 
716 1 36.5943 23.2699 2.82538 -0.0767323 0.023368 0.0446673 
295 1 40.8883 22.7497 1.23176 -0.0141668 -0.0251074 0.033067 
3128 2 39.5056 23.2705 0.650936 -0.0179184 0.00199326 -0.0273612 
2126 1 2.69943 26.4414 1.56263 0.0375609 0.000927078 -0.0432612 
2105 1 0.111487 27.7191 2.46756 0.00243687 0.0327174 0.0333831 
4626 2 2.86867 26.7919 0.125941 0.0064767 0.0635257 -0.0172747 
2106 1 5.27341 27.8178 2.0584 0.0130566 0.017927 -0.00664646 
2253 1 5.04908 25.6962 0.663491 -0.0110679 0.00684598 -0.00291934 
2222 1 10.336 25.0595 1.06189 -0.0394502 0.0113076 0.0400045 
2228 1 8.16864 26.3647 0.195344 -0.000507295 -0.0184196 -0.0127515 
2224 1 9.28801 27.1103 2.48181 -0.0372591 0.0288363 0.0755469 
2221 1 12.9189 24.9244 0.977256 -0.0037873 -0.0470625 0.0178295 
2219 1 11.7998 27.451 2.29979 -0.0334153 0.0263485 0.0474281 
2075 1 15.2213 27.9247 0.409929 0.0496494 -0.0330027 -0.000444645 
2092 1 17.3169 25.9634 1.72469 0.0213401 0.00918739 0.0503764 
1970 1 14.6036 26.502 2.08092 -0.0276032 0.0358849 -0.0499278 
2074 1 16.5544 28.1326 2.65868 0.0335915 -0.0294816 0.00438308 
4598 2 16.1412 26.697 1.05301 0.0128098 -0.0220842 -0.0141749 
1528 1 19.0756 24.9452 0.29808 -0.0130429 0.00774186 -0.0247423 
2192 1 19.7168 27.3013 1.58624 0.0383409 0.0110355 -0.080873 
2216 1 17.7547 27.3911 0.0741792 0.0363524 0.00213992 0.0141624 
1986 1 20.3113 25.498 3.37316 -0.0169506 0.00299376 0.0146757 
5242 2 19.0941 26.5979 0.443889 -0.0245103 -0.0370817 -0.0253245 
103 1 24.1472 27.6306 0.00288519 0.00903294 0.024635 0.0169944 
190 1 21.741 26.0072 0.963074 0.0280462 -0.111793 0.0329171 
730 1 24.3695 26.4741 2.79912 0.0668564 -0.0238359 0.0464289 
598 1 25.8748 25.2221 0.807232 -0.0483388 0.0210833 -0.0122794 
597 1 27.7621 26.9388 2.06839 0.0165789 -0.00960192 -0.0181538 
594 1 30.1806 27.0018 0.850226 -0.0339726 0.0455659 0.0342357 
591 1 30.6046 26.1602 3.46931 0.0386068 0.016184 0.00954948 
746 1 28.6653 24.6798 2.13191 0.0589188 -0.0215137 -0.00481889 
740 1 31.9848 25.1966 0.416692 0.00306984 0.0283973 -0.00225237 
719 1 32.4225 28.0706 0.0710001 0.00865324 -0.0187082 -0.0333206 
587 1 34.3572 24.787 2.93212 -0.0117099 0.0248577 -0.00101488 
721 1 33.0427 26.917 2.58401 -0.0201555 -0.01468 0.0121383 
737 1 35.5142 24.9161 0.438768 0.00309318 -0.00540774 -0.00646854 
586 1 37.0982 28.1202 1.42813 -0.015968 0.00736189 -0.0277034 
585 1 37.1602 25.7881 2.52363 -0.022453 -0.0460492 -0.00660141 
713 1 39.2389 24.7745 0.987164 0.0217413 -0.0520139 0.00376275 
128 1 41.7276 25.4985 0.547953 0.0679776 -0.0472158 -0.0605221 
296 1 41.6146 24.7579 3.13483 0.0225523 0.00562996 -0.0516001 
581 1 39.6845 26.8492 2.92771 -0.0343887 0.0114114 -0.0148488 
2208 1 3.36505 30.3342 0.687228 -0.00850548 -0.0465964 -0.0556777 
2085 1 2.7008 28.8414 2.92301 -0.0455256 -0.0427434 0.0241323 
2083 1 5.67249 30.1368 2.89231 -0.0113268 -0.0634617 0.0756292 
2203 1 8.88197 31.0011 0.510978 0.0676794 0.0143234 -0.0552372 
2205 1 10.1251 28.2768 0.262901 0.0335029 -0.0115242 -0.0177255 
2082 1 9.52105 29.8953 2.61682 0.0126181 0.00623741 -0.0460186 
2207 1 7.54626 28.6788 0.882701 0.0569774 -0.019164 -0.0228982 
2078 1 12.953 28.9395 0.724622 -0.0460605 0.0128269 0.0326572 
2180 1 11.3063 30.7892 0.694683 0.0276643 0.0533277 0.0376022 
2059 1 13.9334 31.4944 0.677226 0.0147453 -0.0216973 0.0207017 
2079 1 11.8839 30.3211 3.49955 -0.00583629 0.0411669 -0.0416045 
4602 2 11.3749 29.2206 0.467165 0.0229426 0.00975102 0.0110874 
2077 1 14.4635 29.5622 2.74757 -0.0107508 -0.00804459 0.0140729 
2179 1 16.3932 31.3212 2.45989 -0.0229325 -0.0283526 0.0215626 
2195 1 17.8738 29.6811 0.822524 -0.00176259 0.0292701 0.0189058 
2087 1 20.4126 29.8931 2.11024 0.0127455 0.0211154 -0.0485397 
710 1 22.5342 28.4137 1.67923 0.0446042 -0.0137727 0.0139786 
391 1 22.2916 31.2232 0.436149 0.00356629 -0.0206561 -0.0329463 
709 1 24.0284 30.6547 1.99651 0.00693359 -0.0398967 -0.0509079 
3073 2 23.8396 31.5195 0.518521 0.0223775 0.00818102 0.0238508 
595 1 25.9318 28.4618 1.48411 0.0336413 0.032339 -0.0591568 
703 1 26.6007 30.6198 2.72913 0.0677223 0.0108476 0.0420638 
568 1 30.75 29.723 1.15649 0.0631861 0.0117234 -0.0215896 
571 1 29.9197 31.5857 0.00883473 0.00161664 0.0199503 -0.0010693 
700 1 28.67 28.9232 0.0384021 -0.00445926 0.0510695 0.011778 
569 1 31.3579 28.7026 3.50308 -0.0334158 -0.011782 -0.0572898 
575 1 28.8477 29.0582 3.07503 -0.0164722 -0.0395077 -0.0364998 
704 1 29.0048 31.4651 2.14942 0.0147057 -0.0113388 0.0752034 
3119 2 30.2782 28.5054 0.315194 -0.00802534 0.0251308 -0.0148395 
3721 2 31.2689 31.2982 1.2124 -0.0321063 0.0101689 -0.0113138 
567 1 32.661 30.879 1.86954 -0.019686 -0.0411776 0.041935 
697 1 34.3696 29.1339 1.83265 0.0291977 0.00258186 -0.0427875 
565 1 36.5701 30.8257 1.85134 0.0257292 -0.0309326 -0.0167644 
558 1 41.5166 30.1468 1.14777 0.0142831 0.0259982 -0.110015 
693 1 39.3 29.4161 2.49082 0.0138709 -0.0240558 0.041641 
2211 1 2.81725 33.5987 0.00604091 0.0182518 0.0202 0.00930018 
538 1 0.192673 34.8646 0.565073 0.0223235 -0.0366305 -9.89432e-05 
1885 1 2.0881 32.1274 2.61424 0.0193711 0.0720105 0.0406527 
2049 1 2.71703 35.0824 2.62032 0.0650363 0.0549025 -0.0341887 
2060 1 7.02198 31.8232 1.59476 0.0224736 0.0107076 -0.0494362 
2044 1 5.48661 34.7855 2.38327 -0.0103086 -0.0608988 -0.00564407 
2187 1 4.73642 32.4518 1.47731 -0.0287244 -0.000520484 0.053151 
4585 2 5.9643 32.1368 0.507175 -0.0216671 -0.03584 -0.00242683 
2165 1 10.0002 35.1646 0.411646 0.019067 0.0158735 -0.00101046 
2062 1 10.2322 32.484 2.3868 0.00223227 0.0160916 -0.0233388 
2185 1 8.19608 34.1111 1.61997 -0.0240604 -0.00659327 -0.000355265 
4567 2 8.52036 34.3622 0.113133 0.0165423 -0.00183983 0.0143969 
5206 2 10.1795 32.0696 0.911338 -0.0223203 0.0160989 0.0347954 
2182 1 11.4306 33.1936 0.223273 -0.0735124 -4.45033e-05 -0.0636809 
2056 1 12.2654 33.892 2.94964 -0.043157 -0.0188153 0.0629687 
2055 1 14.8015 33.667 2.60922 -0.0162588 0.011519 -0.000868766 
2176 1 17.2878 33.9246 2.91065 0.0902401 -0.00771573 -0.0258931 
2151 1 18.1514 34.9911 0.463691 0.00133115 -0.00323658 -0.0205055 
2175 1 18.8064 32.4963 1.1209 -0.0201419 -0.0377745 -0.0326427 
2174 1 20.0312 34.9694 2.52811 0.0400311 -0.067696 0.0578997 
690 1 23.7776 33.1409 0.719192 -0.00578668 -0.0206468 0.0032704 
614 1 21.3573 32.6388 2.48392 0.0188208 0.0257656 -0.0339141 
686 1 26.0728 32.7828 1.41016 -0.0224829 0.0559469 -0.0791728 
666 1 24.9796 34.9682 1.9554 0.036937 -0.0333112 -0.00392775 
3704 2 25.3663 34.046 0.727548 0.013224 -0.00485972 -0.0118331 
682 1 30.5321 34.4114 1.01422 0.0264984 -0.0427505 0.0241743 
548 1 31.3068 32.6234 2.62222 0.0475163 -0.0485979 -0.00560173 
551 1 28.3874 33.7403 1.78604 -0.031839 -0.00763677 0.0208548 
3068 2 31.6286 33.9884 0.107928 -0.0313655 0.00908588 -0.0197381 
3718 2 28.558 32.4092 1.00237 -0.0124251 0.0433835 -0.0268188 
694 1 34.5901 32.1411 0.199973 -0.00491807 0.0209391 0.0598168 
546 1 34.2675 32.9153 2.61772 0.0213286 0.00333636 -0.033963 
677 1 33.0819 34.2101 0.694346 -0.032176 -0.0257889 0.00868194 
676 1 35.0627 35.0753 1.63796 -0.00330389 0.0219014 0.00267597 
3091 2 34.5635 33.5436 1.17686 -0.0286272 -0.00626806 -0.0148983 
678 1 36.9411 33.4481 1.32962 0.0559943 -0.0166678 -0.0063688 
3061 2 36.6683 35.0342 0.867567 -0.0258774 0.0125742 -0.00226804 
651 1 39.8603 34.9081 0.93226 0.0252053 -0.0137996 0.00875569 
542 1 39.3502 33.8891 3.32965 0.0285873 -0.0347984 -0.0475421 
560 1 41.4645 32.598 2.35752 0.0530402 -0.0141165 -0.00534116 
673 1 39.0174 32.1167 1.52172 -0.0178184 -0.025798 0.00961996 
3175 2 39.2286 33.4792 0.708421 -0.0257022 -0.00830065 -0.000825709 
2048 1 1.5256 37.1921 0.40005 -0.0163567 -0.00998078 -0.0102871 
5180 2 0.407024 38.2339 0.294372 -0.0312367 -0.017972 0.0229098 
2050 1 3.98587 36.4275 0.450414 0.0447465 -0.0251039 -0.00965458 
2141 1 6.49924 36.8838 0.820865 -0.00260732 -0.0233663 -0.030409 
2163 1 8.81078 36.8887 1.72424 -0.00713553 -0.0114108 -0.0110526 
2158 1 11.2412 38.0077 0.420232 0.0107012 -0.0729116 0.0291884 
2159 1 12.3413 36.5159 2.00644 0.0334697 0.0143386 -0.0090311 
4661 2 12.8877 37.2223 0.715469 0.0126545 -0.0350896 -0.0251698 
2008 1 16.5221 37.4652 1.12392 -0.0403962 0.0427644 -0.0219309 
2036 1 14.1378 38.1865 0.644021 -0.0282013 -0.0118931 0.00216672 
2181 1 14.5707 35.5578 0.761149 -0.019919 -0.00757581 -0.0169996 
2032 1 16.979 36.4069 3.34779 0.0297279 0.00631743 0.0406724 
2033 1 15.209 38.5899 3.40549 0.0272629 0.013473 -0.0441619 
2132 1 18.9915 37.2185 1.50572 0.0556989 0.00946042 0.00793667 
5185 2 17.6359 38.3328 0.660623 0.0117949 0.0526124 0.0508701 
669 1 22.2368 35.2265 0.962632 0.0303419 -0.0355116 0.0378443 
539 1 23.3293 37.3717 2.78781 0.0282217 0.0339439 -0.0194713 
665 1 25.453 37.6987 1.16793 -0.00902108 -0.0107846 0.00917702 
683 1 27.3759 35.9578 1.44191 -0.0478267 -0.0314606 0.00812736 
532 1 27.944 38.2139 2.68976 -0.0114041 -0.0327121 0.0166372 
3684 2 26.4708 38.1583 0.133933 -0.0526384 -0.0290557 -0.00704425 
529 1 30.0081 36.9407 1.80131 0.0130321 0.0181063 0.0140138 
3047 2 29.8096 37.9177 0.108682 -0.00970666 0.026376 0.0176015 
635 1 32.324 36.7518 0.208602 -0.00586465 -0.0941997 -0.0055647 
527 1 32.4826 35.3931 3.08278 -0.00668082 0.0538559 0.00194141 
507 1 32.087 38.4075 2.82002 -0.0229701 0.0111036 -0.00833267 
654 1 38.5685 37.3959 0.717842 0.0668122 0.0233559 -0.0322741 
521 1 37.3691 35.5973 2.18407 -0.0238139 0.0124921 0.0117368 
528 1 35.5645 37.5657 1.75588 0.00875658 -0.0542137 -0.0190524 
649 1 41.1089 37.235 0.354103 0.00725178 -0.00701489 -0.0291472 
1693 1 41.9294 36.727 2.53282 -0.0430156 0.0106082 0.0172117 
1503 1 1.48151 42.1099 0.284595 0.0270191 -0.00520271 0.0221399 
2148 1 2.35884 39.294 1.56826 -0.0133045 -0.0125939 0.0449145 
1586 1 0.921695 41.5312 2.84295 -0.0152224 0.0406072 0.0101985 
2028 1 0.469216 39.0498 3.34036 0.00492963 -0.0181942 0.00355682 
1878 1 6.33417 39.8441 0.35796 -0.0422648 -0.0090383 0.0221943 
2145 1 3.79527 41.3156 0.682787 -0.0111355 -0.0189189 -0.020535 
1523 1 3.8153 41.3587 3.43426 -0.00372414 0.00168164 -0.0115227 
2025 1 4.93048 38.8185 2.10123 0.0177386 -0.0215177 -0.010385 
2131 1 6.61854 40.9216 3.1439 0.0299075 -0.0139882 0.081613 
2139 1 8.83236 38.9165 0.130315 -0.03938 -0.00444116 -0.0509314 
2018 1 7.99135 38.9026 3.49071 0.0607434 -0.00145096 0.0680148 
1720 1 8.1501 41.3723 1.05345 0.0241234 -0.0311203 -0.0180647 
2021 1 10.0722 40.0392 1.89887 0.0278157 0.0612462 -0.0448184 
4662 2 9.20397 40.4167 0.491901 -0.0060585 -0.0572371 0.0247904 
2015 1 11.7801 42.1726 2.098 0.0405285 0.0513277 0.0133037 
2034 1 12.5952 39.2836 2.22583 -0.0824511 0.0416137 -0.0100484 
5157 2 12.8991 42.1806 0.770236 0.0663328 0.00838281 0.0275336 
2012 1 14.1087 41.1399 1.16728 0.0146718 0.00375585 -0.0281449 
2133 1 16.4431 40.1535 1.5268 -0.0255955 -0.0330546 -0.0102009 
2108 1 19.4452 41.8895 0.657482 0.00293631 -0.00183467 0.00984815 
2170 1 18.5684 39.53 0.669966 0.0234292 -0.0250712 -0.0252169 
2009 1 19.7444 40.8693 3.32291 0.0165452 -0.0072566 -0.0361578 
732 1 24.2334 41.7776 0.57137 -0.0168584 0.00672171 -0.0482621 
2127 1 21.1794 39.0261 1.34573 0.00744583 -0.0113951 0.0671935 
642 1 23.4984 40.1993 2.8209 -0.0268994 0.0549686 0.0366375 
643 1 26.2231 40.0609 2.02777 -0.060859 0.0475957 0.0437527 
3412 2 26.2134 41.2059 0.042608 -0.0562239 -0.0141972 -0.0584233 
633 1 30.7974 39.0936 0.685157 0.00301743 -0.024028 -4.99185e-05 
511 1 28.6885 40.9971 1.75847 -0.0270979 -0.0333381 0.0427702 
412 1 32.3135 41.7237 0.73064 0.031671 -0.00125727 0.00833199 
631 1 34.0696 39.2748 0.547678 -0.00143612 0.0296455 -0.0404954 
506 1 33.3379 40.4856 3.28436 0.0758372 0.00783481 0.00297623 
625 1 38.044 42.0644 1.62419 -0.00251617 0.0573529 0.052885 
629 1 36.9331 39.4177 0.529233 0.0386352 -0.0263491 0.00768581 
630 1 35.2804 41.2761 0.967357 -0.0570841 -0.0137401 0.0192469 
499 1 37.5411 38.8932 3.16859 0.0156196 -0.0211176 0.0030128 
504 1 35.9603 41.0808 3.26313 -0.00621318 -0.00199717 0.00794593 
148 1 42.1113 39.7182 0.658054 0.0127644 0.0368572 0.0379218 
626 1 39.4089 39.6859 0.583694 0.0100667 0.00613982 0.0116525 
105 1 40.604 41.8087 2.04827 -0.0716244 -0.0519395 -0.00682876 
502 1 40.0698 39.3562 3.20591 -0.040145 -0.01304 -0.0349055 
2869 1 1.10337 2.58942 5.01422 -0.013256 -0.0370203 -0.000354333 
2845 1 5.93924 0.263745 5.04459 0.00185932 -0.0663218 -0.0136597 
2864 1 6.90007 2.34873 3.68577 0.0034031 -0.0273301 -0.0300947 
2866 1 4.17104 1.92783 5.09765 0.018987 0.0378097 -0.03112 
2860 1 9.27418 2.62692 5.07629 -0.046973 0.0833455 0.0480073 
2862 1 8.82019 0.24392 3.65519 0.079378 -0.0743936 0.00451679 
2740 1 7.40604 1.79119 6.6988 0.0141281 -0.00550798 0.00834096 
2734 1 11.7144 2.53588 6.48228 -0.0435246 0.00449675 -0.0155368 
2861 1 12.7499 2.29089 3.61596 0.0145244 -0.0144464 0.0145128 
2938 1 11.2581 0.462003 5.03931 0.00845543 0.0103625 0.0985149 
2858 1 14.0702 1.43429 6.00149 -0.0318412 -0.0106383 0.0341679 
2732 1 16.6101 1.60656 5.50742 -0.06026 -0.00646671 -0.0168946 
2856 1 15.2155 3.32569 3.92856 0.0161386 0.0239404 0.0466301 
2851 1 20.5257 3.08699 6.34324 -0.00583776 0.0121711 0.0438586 
2852 1 19.2106 1.00869 5.1285 -0.0323809 0.0328232 -0.0236998 