#Lammps input data by Longo Lucas and Tavella Franco

6000 atoms

2 atom types

0.0 42.2 xlo xhi
0.0 42.2 ylo yhi
0.0 42.2 zlo zhi

Masses

1 938.0
2 938.0

Atoms #atom_ID atom_type x y z vx vy vz

1 1 31.0349 21.123 18.2068
2 1 41.8541 21.4852 20.4831
3 1 29.9576 42.1057 13.8002
4 1 41.6027 40.3911 6.53085
5 1 22.4234 38.407 11.8563
6 1 41.9227 24.3752 16.817
7 1 41.5829 36.4538 19.0205
8 1 22.3924 34.9613 8.61453
9 1 25.0693 41.5358 8.93314
10 1 41.0663 25.6215 18.5764
11 1 33.8514 41.9163 0.771873
12 1 22.3492 21.914 13.8125
13 1 34.124 39.9885 18.0417
14 1 30.7826 40.1388 18.0765
15 1 42.1028 28.5568 1.24323
16 1 33.0267 40.5359 19.9685
17 1 29.2353 38.5863 18.0739
18 1 26.9399 41.5252 0.207338
19 1 26.6003 41.3927 18.5162
20 1 31.1856 38.0417 19.851
21 1 24.0072 40.9358 19.1189
22 1 23.1778 41.6405 16.954
23 1 24.6699 41.2765 0.2955
24 1 37.6449 35.5108 16.9766
25 1 39.2962 36.616 0.422191
26 1 38.7647 21.3026 11.745
27 1 37.0617 36.7742 19.1308
28 1 32.8198 34.0096 18.9249
29 1 34.7264 37.497 18.6918
30 1 31.9358 35.9035 20.3298
31 1 30.5786 35.194 17.7411
32 1 35.3084 34.887 14.3004
33 1 30.9351 37.2012 17.1753
34 1 28.8066 37.9309 15.2337
35 1 26.9541 37.3912 16.2022
36 1 28.6895 36.4756 18.5375
37 1 24.3111 37.6904 18.8137
38 1 27.2754 38.6582 18.1503
39 1 23.2969 35.8067 20.3201
40 1 25.623 35.7022 20.8739
41 1 22.255 39.0918 20.1457
42 1 40.7934 34.7858 0.841238
43 1 40.2817 32.5568 21.0904
44 1 39.651 36.535 18.0553
45 1 38.4315 31.859 20.2703
46 1 39.5304 34.8955 19.5924
47 1 39.0332 30.7101 17.9428
48 1 37.085 33.079 18.3649
49 1 31.8033 32.3959 17.652
50 1 33.3962 30.8819 18.2997
51 1 32.2522 35.1438 15.8446
52 1 33.4399 33.4929 16.5334
53 1 29.4337 35.923 15.2788
54 1 30.7193 30.108 16.8697
55 1 27.9058 33.1745 20.6914
56 1 29.431 33.1128 18.8262
57 1 26.3317 36.5258 18.2299
58 1 27.0577 34.626 19.294
59 1 24.7416 33.925 20.2897
60 1 23.7821 30.5119 20.9862
61 1 22.8181 33.5171 19.3626
62 1 25.3402 33.7485 17.7685
63 1 22.0087 32.2345 0.938605
64 1 40.3516 30.303 19.7957
65 1 39.2522 28.0146 20.8465
66 1 40.8456 27.7475 18.5913
67 1 38.2679 29.0239 19.1365
68 1 36.3678 30.4647 20.2461
69 1 38.5195 29.5398 1.99219
70 1 34.9351 32.137 18.9001
71 1 32.523 32.478 20.5418
72 1 32.6097 29.3525 19.9109
73 1 35.0775 29.7089 15.7926
74 1 30.573 31.5443 20.88
75 1 28.6082 30.542 16.1633
76 1 30.0362 31.2399 18.7401
77 1 31.372 27.5506 17.1295
78 1 27.7429 32.0742 2.16147
79 1 27.3594 32.2209 17.9375
80 1 28.939 28.014 16.4326
81 1 28.1247 29.8541 18.1937
82 1 28.1708 27.5026 18.7644
83 1 24.902 32.0534 14.4183
84 1 26.0814 29.0466 20.0295
85 1 25.5443 29.9604 18.1162
86 1 32.6404 21.303 8.37455
87 1 21.8068 29.0238 1.28339
88 1 38.3664 26.1796 18.3899
89 1 38.3265 26.0142 20.9391
90 1 36.9042 27.0898 19.6215
91 1 34.9377 26.8848 18.8645
92 1 34.1141 31.4074 21.0047
93 1 34.3289 25.7632 20.6766
94 1 34.901 28.0999 0.125284
95 1 33.0253 28.1023 18.129
96 1 32.9735 25.2492 18.6365
97 1 30.8654 27.3237 0.821036
98 1 31.1521 26.6667 19.5452
99 1 29.2346 25.6995 20.2834
100 1 30.5847 28.8267 18.9698
101 1 26.4581 26.3661 0.349992
102 1 26.3173 26.2356 18.7921
103 1 24.3449 27.4379 0.566431
104 1 24.2828 28.0722 19.7667
105 1 40.3339 41.6976 3.97281
106 1 23.1029 25.8708 19.8638
107 1 32.4748 41.7969 18.5911
108 1 40.0541 22.9396 1.15589
109 1 39.2153 22.0188 17.6133
110 1 40.2764 23.6884 19.9038
111 1 40.1941 40.6026 20.4488
112 1 37.9295 23.7761 20.2329
113 1 26.737 41.9205 3.17035
114 1 34.6877 22.8213 19.138
115 1 41.5504 24.597 8.80736
116 1 33.4083 23.6868 20.6774
117 1 22.0591 31.9741 17.1204
118 1 29.3733 22.6507 19.3399
119 1 32.615 22.8065 17.9837
120 1 31.1677 22.0222 20.3618
121 1 23.3525 21.4755 6.63781
122 1 28.6943 28.5287 20.5711
123 1 25.3483 23.7014 19.1094
124 1 22.7477 21.9051 18.1238
125 1 41.6503 32.5642 14.2421
126 1 31.3506 22.4446 1.60409
127 1 40.7154 41.6095 8.66274
128 1 41.639 25.1314 2.87501
129 1 29.3924 22.8644 3.40335
130 1 21.5504 22.2879 20.1922
131 1 42.0832 41.5538 15.5976
132 1 37.7907 41.7298 0.878708
133 1 41.8702 25.0436 14.467
134 1 38.2784 40.6057 17.5059
135 1 37.8161 39.9172 15.1948
136 1 36.0738 39.5332 19.2026
137 1 35.2233 40.8163 15.4041
138 1 41.0836 39.9012 18.0078
139 1 39.3666 40.2461 13.5261
140 1 21.9447 30.502 13.0181
141 1 32.8006 40.4456 15.8628
142 1 32.8324 21.8938 13.5317
143 1 38.4568 39.8702 20.5346
144 1 21.9476 34.6493 0.133315
145 1 30.518 39.6448 15.5076
146 1 27.7596 40.771 16.8416
147 1 25.4454 39.5538 17.3698
148 1 41.2684 40.0697 2.51064
149 1 21.6543 33.2025 11.6291
150 1 41.4855 22.824 14.7525
151 1 21.4249 24.6778 0.668796
152 1 35.992 40.5146 0.172376
153 1 41.2175 37.6717 16.7836
154 1 40.2374 39.4845 15.48
155 1 39.6759 36.3287 15.5599
156 1 37.9918 37.2771 14.5427
157 1 38.1858 38.0845 16.8481
158 1 38.0399 35.018 14.07
159 1 36.4024 36.5117 15.6875
160 1 32.7537 38.509 18.3615
161 1 32.9577 36.1184 18.517
162 1 36.1168 39.0203 17.1148
163 1 33.8983 34.5491 12.2477
164 1 26.0357 36.2197 14.0532
165 1 31.4858 37.3356 14.6296
166 1 33.4095 37.8119 16.2933
167 1 28.288 35.0355 17.1063
168 1 24.8197 37.724 15.6414
169 1 24.8719 34.4475 14.1683
170 1 22.7413 37.5963 17.3323
171 1 23.3191 35.747 15.1876
172 1 23.8835 35.7135 17.7525
173 1 26.5476 22.1095 16.8743
174 1 22.6709 37.4831 14.4064
175 1 22.3112 39.828 18.1269
176 1 39.7075 30.5879 14.3882
177 1 40.9292 32.1273 17.4573
178 1 39.2472 33.5094 18.1924
179 1 34.3178 35.8886 16.3453
180 1 35.9654 33.7902 16.0353
181 1 36.2888 32.5795 14.0087
182 1 33.397 33.1688 14.1524
183 1 33.807 36.6676 13.9505
184 1 27.314 34.767 14.4503
185 1 29.5892 32.793 15.8223
186 1 31.3199 33.0578 13.9975
187 1 25.575 35.4475 16.5636
188 1 26.4361 32.5058 12.945
189 1 28.4357 31.4266 14.0866
190 1 22.0561 25.9741 3.36188
191 1 21.6565 34.1589 17.152
192 1 23.843 32.6102 16.4671
193 1 27.7844 21.4506 7.17805
194 1 38.7264 38.0139 19.3146
195 1 40.1825 29.4238 16.1349
196 1 38.6441 28.1403 13.673
197 1 35.2954 31.6286 16.0866
198 1 36.6956 30.8864 17.5731
199 1 37.2137 30.2022 14.8136
200 1 37.3613 28.5994 17.1058
201 1 32.8672 31.4063 15.9243
202 1 32.8381 29.0183 15.417
203 1 34.3788 30.9313 13.8727
204 1 30.973 31.005 14.4865
205 1 29.9276 31.1569 12.0086
206 1 27.124 33.2196 16.0487
207 1 26.0637 31.0493 15.7824
208 1 30.0654 28.8466 14.3993
209 1 25.0073 28.5894 16.2471
210 1 24.7249 31.5584 18.8169
211 1 23.2967 28.6792 18.2016
212 1 23.2855 29.3121 14.0521
213 1 37.8133 24.4978 14.0527
214 1 40.9438 26.7994 15.8981
215 1 39.7035 24.7692 17.1774
216 1 35.6429 24.5695 19.7052
217 1 38.8843 27.8648 16.1162
218 1 36.7275 28.0504 15.0477
219 1 35.1533 29.3176 18.4276
220 1 34.263 28.5589 13.9696
221 1 34.9031 27.5491 16.7121
222 1 33.2943 26.3862 16.3179
223 1 31.8235 30.338 12.5257
224 1 28.379 25.4122 17.5389
225 1 30.7725 24.6178 18.5016
226 1 32.072 27.4829 14.0254
227 1 30.5279 26.1861 15.5696
228 1 27.5369 26.5988 15.4852
229 1 26.9263 28.176 17.1112
230 1 27.3677 23.6244 18.7393
231 1 22.637 26.5254 15.1859
232 1 25.7766 25.4546 15.8339
233 1 23.9713 26.3166 17.3068
234 1 39.5278 23.3452 15.366
235 1 41.5432 21.683 17.505
236 1 37.1303 23.7763 18.2831
237 1 34.6834 24.2693 17.1501
238 1 36.8534 23.0681 15.9226
239 1 35.4988 21.5386 17.2579
240 1 32.5063 24.0182 16.038
241 1 34.4483 22.6554 15.3421
242 1 33.7114 23.8895 13.2605
243 1 32.0935 21.272 15.4794
244 1 21.4821 21.4814 11.7958
245 1 29.8979 22.5638 16.7241
246 1 30.3001 24.0872 14.687
247 1 27.8886 23.6084 15.7426
248 1 24.6521 23.0256 14.2353
249 1 25.3373 23.7048 16.8714
250 1 30.6685 42.0975 11.4992
251 1 23.0777 21.4089 15.8847
252 1 23.0806 24.0205 18.409
253 1 41.3649 39.5314 13.0844
254 1 38.8949 21.6033 19.8435
255 1 38.2575 41.2722 11.4222
256 1 40.4078 41.167 11.5861
257 1 34.234 38.963 11.4514
258 1 36.4062 38.9712 13.4472
259 1 37.8236 41.8664 14.1192
260 1 33.9675 41.9905 13.4557
261 1 35.8983 40.7692 12.1844
262 1 29.3646 40.3126 12.4887
263 1 31.7635 40.8955 14.0839
264 1 28.2848 41.5651 10.8761
265 1 27.0657 38.3653 13.4084
266 1 26.415 41.3125 12.5299
267 1 41.0861 32.9565 9.0064
268 1 26.2689 39.9188 14.8998
269 1 33.5381 21.2533 20.7447
270 1 24.1542 40.3364 11.2014
271 1 39.9693 37.823 12.5935
272 1 40.5377 35.8512 9.54467
273 1 40.758 39.111 10.5167
274 1 38.1936 39.3117 12.1419
275 1 36.3339 35.9626 10.9094
276 1 38.9366 35.1221 12.0588
277 1 37.4184 36.8478 12.1904
278 1 30.6482 39.0077 11.0502
279 1 35.0786 36.7823 12.3877
280 1 34.7899 38.3916 15.0774
281 1 32.9227 38.9562 13.2425
282 1 26.0492 36.4539 11.5871
283 1 29.0354 35.9412 12.8021
284 1 28.8614 37.287 11.0884
285 1 29.9225 38.2232 13.1319
286 1 24.4163 37.2712 13.2865
287 1 24.579 39.4752 13.0161
288 1 24.9826 38.094 10.4135
289 1 25.4431 34.1228 11.4771
290 1 22.3756 40.8756 12.7133
291 1 23.7474 36.2805 11.7425
292 1 24.9697 35.5334 9.34474
293 1 39.5592 33.5555 15.6976
294 1 40.3621 30.6519 10.2598
295 1 41.2974 22.9157 2.80567
296 1 41.5042 25.0306 5.00688
297 1 39.6619 33.2179 13.2475
298 1 37.8585 32.1122 15.9672
299 1 36.7739 34.2123 12.2951
300 1 35.5662 31.9473 11.9922
301 1 32.5503 35.1953 10.944
302 1 34.2591 32.9262 10.3895
303 1 29.5045 33.5495 13.1285
304 1 31.5937 35.1497 13.2812
305 1 30.3511 34.9779 10.8185
306 1 31.337 32.9359 11.6167
307 1 23.2467 34.2998 12.6959
308 1 27.6758 34.9581 11.9995
309 1 28.3077 32.4505 11.1118
310 1 22.6054 32.6366 14.3781
311 1 23.7295 32.5844 9.99384
312 1 23.6917 32.0772 12.2104
313 1 21.365 38.9918 14.1832
314 1 41.5848 29.6481 12.4088
315 1 22.0213 39.1206 5.77934
316 1 22.0372 30.5539 19.0957
317 1 37.7359 31.919 12.678
318 1 39.5087 30.695 12.2391
319 1 33.1455 32.0317 11.7507
320 1 36.1512 31.6234 9.97241
321 1 32.6372 31.0455 10.063
322 1 29.9198 32.7426 9.67308
323 1 30.3704 26.4795 12.6213
324 1 28.218 26.849 9.5033
325 1 27.5794 28.7716 14.2649
326 1 25.1098 27.556 14.717
327 1 28.1058 30.1545 12.2545
328 1 28.8124 27.9283 12.5384
329 1 40.0342 42.056 16.6216
330 1 23.7451 30.4629 16.36
331 1 25.5896 30.2028 13.751
332 1 23.2605 29.8952 10.4507
333 1 39.4838 24.648 12.9912
334 1 38.0039 26.7606 12.0509
335 1 37.6773 28.42 10.8702
336 1 40.4313 26.97 12.4437
337 1 37.3077 25.7682 9.92635
338 1 36.2592 29.7163 13.0483
339 1 36.1312 26.8238 13.1136
340 1 34.7355 26.0556 14.8747
341 1 34.6187 29.8813 11.5886
342 1 33.7898 26.4525 12.5312
343 1 31.8899 25.5213 14.3633
344 1 32.291 26.0571 10.9363
345 1 28.5366 25.4036 11.7685
346 1 28.8183 25.6891 13.9394
347 1 31.3714 23.9597 12.6166
348 1 26.7426 25.7396 13.165
349 1 25.4855 27.6083 12.6485
350 1 28.2065 22.886 12.3456
351 1 24.2428 26.6643 10.8038
352 1 24.4231 25.4113 13.4914
353 1 22.7634 27.1173 12.9274
354 1 39.4323 22.0321 13.7308
355 1 35.8257 24.0816 11.6705
356 1 36.4853 21.9664 10.3196
357 1 36.7963 25.696 17.0071
358 1 39.0239 24.1419 8.52653
359 1 33.6077 24.5004 10.9297
360 1 35.1442 21.7828 12.258
361 1 33.0766 21.8939 11.3037
362 1 35.7129 24.114 14.1826
363 1 30.335 22.1788 13.9719
364 1 27.9352 21.2556 14.8049
365 1 29.7264 23.0354 10.6317
366 1 26.6755 23.3733 13.9654
367 1 21.5159 25.7536 17.6411
368 1 25.8372 24.4009 11.8658
369 1 23.301 24.7825 10.7859
370 1 24.924 22.1877 12.0531
371 1 22.5808 23.671 12.5162
372 1 22.7459 22.2577 10.2803
373 1 38.4921 38.9409 9.11851
374 1 38.3263 41.8979 8.67307
375 1 41.3923 38.3276 8.46233
376 1 37.1094 38.8506 7.04061
377 1 36.5972 38.3467 10.6561
378 1 36.5764 41.2635 9.6326
379 1 34.2712 41.3829 9.31839
380 1 32.9291 40.0917 7.11626
381 1 32.7964 40.9055 11.654
382 1 22.2666 41.7171 20.6813
383 1 35.3499 39.3564 8.8962
384 1 31.9102 41.2593 9.37484
385 1 29.1742 38.8663 9.33971
386 1 40.3395 30.0992 0.955918
387 1 26.4788 40.8358 10.3967
388 1 26.7283 39.2423 8.94005
389 1 23.8729 38.8803 6.83902
390 1 28.5701 36.8478 7.66064
391 1 22.0402 31.078 2.89539
392 1 23.1236 37.0244 9.53064
393 1 21.3581 36.798 4.78949
394 1 22.8017 41.7441 10.4139
395 1 23.7052 39.5167 15.1507
396 1 39.2777 37.5977 10.2376
397 1 39.0595 36.4796 7.67539
398 1 39.505 34.1174 8.2944
399 1 36.3816 36.9561 8.63776
400 1 38.2483 35.9586 9.99798
401 1 34.0973 37.3544 7.60557
402 1 33.9589 37.1056 10.374
403 1 32.9147 39.0898 9.53004
404 1 31.9669 35.8021 7.34078
405 1 31.9833 37.4086 12.1795
406 1 30.1448 35.2907 8.5973
407 1 31.4945 37.2994 9.44305
408 1 27.5398 38.9582 11.6588
409 1 27.0546 36.9224 9.71605
410 1 23.677 39.1699 8.92906
411 1 26.0509 37.5869 7.65675
412 1 32.909 41.786 3.23602
413 1 22.0672 35.2886 10.9118
414 1 40.8746 33.6542 11.6488
415 1 38.8092 32.7136 10.4034
416 1 36.7747 22.1042 13.6985
417 1 38.1173 35.1183 6.82448
418 1 36.2097 33.8906 9.73178
419 1 37.1897 33.1106 7.84964
420 1 32.3091 33.3077 9.14275
421 1 33.9514 35.1084 9.28278
422 1 30.2947 35.4628 5.66669
423 1 28.682 32.1225 7.74505
424 1 29.0606 29.5437 8.77112
425 1 26.9965 30.5652 9.03824
426 1 26.267 32.8155 9.80157
427 1 27.9057 34.5289 10.0972
428 1 26.2904 32.3482 7.4458
429 1 24.6039 33.7994 7.89991
430 1 23.1844 32.0254 7.43627
431 1 21.376 32.7496 8.73233
432 1 41.082 28.2147 14.2612
433 1 40.6 28.154 10.8462
434 1 40.4526 30.7094 5.52405
435 1 40.4459 29.2242 7.957
436 1 31.8507 21.238 4.70003
437 1 38.169 30.3867 10.1777
438 1 38.5023 30.8869 8.24061
439 1 38.0888 28.648 8.06766
440 1 34.704 26.2102 6.76727
441 1 35.5066 28.5807 6.92293
442 1 36.2038 30.4726 7.56752
443 1 34.0317 30.445 8.5208
444 1 32.8234 28.5838 11.8374
445 1 33.5584 29.0084 5.93341
446 1 30.7591 31.1448 8.55292
447 1 30.4427 29.3561 11.3935
448 1 30.452 30.7255 6.08613
449 1 24.698 30.5417 9.03587
450 1 27.9388 29.0734 10.4817
451 1 25.5019 30.6813 11.4236
452 1 25.6067 28.5216 10.3391
453 1 25.555 41.4639 5.30398
454 1 21.6192 31.0314 10.1103
455 1 21.4504 30.2066 7.27796
456 1 41.2361 26.7461 8.43313
457 1 39.3849 25.7063 10.4807
458 1 38.8047 26.8784 8.19358
459 1 35.8767 28.9764 9.53931
460 1 39.1413 23.6966 5.42342
461 1 36.2738 26.847 8.04505
462 1 35.5863 26.6369 10.9214
463 1 34.3338 27.353 9.177
464 1 31.7713 29.2069 8.67848
465 1 32.5433 25.5673 8.90809
466 1 30.2127 28.6271 6.84262
467 1 30.3993 27.6825 9.60736
468 1 26.8075 26.6771 10.6629
469 1 25.1856 25.2102 9.02687
470 1 30.9958 26.1982 7.0435
471 1 25.6145 27.7967 8.18374
472 1 37.6265 22.2835 0.879525
473 1 22.678 27.1583 9.42482
474 1 22.7223 25.0766 8.03045
475 1 22.9075 27.3747 7.23155
476 1 37.8776 23.9086 10.6959
477 1 41.3667 24.929 11.4828
478 1 40.3506 22.735 7.94575
479 1 40.3548 22.922 11.2983
480 1 36.8378 24.6444 6.36885
481 1 34.479 24.7349 9.15229
482 1 37.0129 23.5038 8.08986
483 1 38.8844 22.1009 9.60264
484 1 31.7341 23.1788 10.0224
485 1 34.7364 22.4254 8.77873
486 1 27.582 21.7332 9.76842
487 1 30.3383 25.5343 10.1567
488 1 21.5403 30.1259 15.3234
489 1 31.7061 23.7934 7.94241
490 1 29.9459 21.8472 8.57443
491 1 29.0574 23.9334 8.46611
492 1 25.3973 22.6812 9.81896
493 1 27.4995 24.5664 9.63409
494 1 38.5802 26.2104 15.3443
495 1 26.3322 23.2147 7.59619
496 1 23.852 23.1917 7.99941
497 1 39.6735 39.7591 7.30135
498 1 39.5651 41.5521 6.34584
499 1 37.304 39.1439 4.79332
500 1 37.691 41.0343 6.76964
501 1 38.8579 36.5482 5.01528
502 1 40.184 38.8186 5.04585
503 1 34.9818 38.8653 5.83122
504 1 36.1796 40.9038 4.39465
505 1 35.3304 41.1529 6.69564
506 1 33.5639 40.7192 5.06162
507 1 32.1317 39.1766 4.75526
508 1 30.882 39.1537 7.85615
509 1 28.7186 40.5803 7.17843
510 1 21.5917 41.764 3.47326
511 1 28.5551 40.8647 3.84649
512 1 29.8889 39.7365 4.82825
513 1 26.3343 40.6832 7.18867
514 1 25.377 37.9688 5.54455
515 1 22.0976 40.0921 7.96721
516 1 23.9979 41.2541 6.83314
517 1 23.7517 36.3003 7.36723
518 1 23.1636 38.9092 2.7095
519 1 35.8601 41.9218 17.7448
520 1 40.9708 35.1196 5.94943
521 1 37.2851 34.8779 4.41092
522 1 36.0046 34.9412 7.80974
523 1 36.1948 36.6936 1.63161
524 1 36.5223 36.8019 5.93949
525 1 32.631 37.702 6.06784
526 1 33.9867 36.0579 5.53703
527 1 32.0887 35.4033 4.83447
528 1 35.56 37.1599 3.95329
529 1 29.6463 37.0343 3.58242
530 1 27.9049 38.8067 6.60917
531 1 30.2183 37.5415 6.15993
532 1 28.0592 38.4041 4.25187
533 1 27.9571 36.1662 5.63839
534 1 28.1756 34.4205 7.6903
535 1 26.2124 35.2713 7.87789
536 1 25.9263 35.7175 5.58235
537 1 22.4241 40.4189 1.24182
538 1 41.9031 34.6374 2.9461
539 1 23.5241 37.4433 4.71585
540 1 23.3201 34.5396 5.79619
541 1 24.41 41.9905 13.576
542 1 39.3633 33.979 4.83658
543 1 40.2149 32.9514 6.68053
544 1 34.0609 32.1018 7.61904
545 1 36.5142 32.9614 5.96345
546 1 34.4722 32.4135 4.93228
547 1 34.142 34.0887 6.61468
548 1 31.013 32.7298 4.74584
549 1 29.0216 33.5578 1.46792
550 1 29.0526 33.6743 5.51812
551 1 28.2757 34.1968 3.59192
552 1 26.6033 33.3594 5.80095
553 1 24.2123 32.3301 5.60158
554 1 25.5893 30.301 6.09956
555 1 24.0591 29.3779 7.06809
556 1 21.5264 33.3372 6.37434
557 1 21.9825 28.2725 16.428
558 1 41.0971 30.1725 3.48978
559 1 41.8973 29.3624 17.4841
560 1 41.3712 32.7716 4.28972
561 1 39.7089 28.3303 5.83671
562 1 38.3132 31.5856 5.86009
563 1 35.3608 30.6511 5.40061
564 1 37.0321 28.7549 5.40026
565 1 36.7607 30.591 3.39549
566 1 32.6453 31.517 5.97985
567 1 32.8998 30.8148 3.58858
568 1 30.5991 29.6938 3.00179
569 1 31.2777 28.3517 4.91058
570 1 31.7239 33.4832 6.73416
571 1 29.9876 31.549 2.36686
572 1 25.0741 26.5056 6.44093
573 1 27.6572 30.9555 6.3588
574 1 27.7102 28.5401 7.64435
575 1 28.6763 29.5863 4.28331
576 1 26.7873 28.4975 5.38067
577 1 40.2208 21.3676 4.19734
578 1 22.1945 30.6141 5.57367
579 1 23.7944 28.2484 5.45863
580 1 37.6569 41.9223 19.1183
581 1 39.771 26.5949 3.8879
582 1 37.7057 26.6902 6.23149
583 1 41.7173 27.2923 6.26947
584 1 40.0561 25.5262 6.64228
585 1 37.2598 25.6272 4.28169
586 1 36.8427 28.2504 3.08816
587 1 34.2047 24.4605 4.24109
588 1 35.363 26.8366 4.59838
589 1 33.6833 22.122 4.44476
590 1 32.6067 25.0609 5.8956
591 1 30.8914 26.2039 4.70726
592 1 32.7461 27.5883 7.68089
593 1 29.2325 26.9725 5.66858
594 1 29.8594 26.8146 2.83725
595 1 25.8905 27.9428 3.00949
596 1 24.9036 24.3177 6.28428
597 1 27.6769 26.8499 4.25355
598 1 25.701 25.2419 2.57979
599 1 22.1885 23.022 5.33932
600 1 22.7109 25.2705 5.66363
601 1 41.3006 34.8125 17.4883
602 1 25.368 22.638 3.83394
603 1 41.7255 37.4313 14.3584
604 1 21.3519 24.2454 9.53222
605 1 40.9898 22.361 5.72411
606 1 21.2202 37.6498 7.80131
607 1 38.2107 21.7953 6.05807
608 1 34.6049 23.5678 6.5974
609 1 35.9953 21.9853 5.97135
610 1 21.7231 36.9704 19.0335
611 1 32.7244 22.1177 6.34032
612 1 31.5646 23.5692 4.50573
613 1 30.129 22.6567 5.85933
614 1 21.1789 32.4026 4.10202
615 1 29.0512 24.7631 6.70651
616 1 27.7439 23.1387 5.11087
617 1 27.255 26.0106 7.66301
618 1 26.4313 25.1468 4.82054
619 1 27.3257 21.712 3.11034
620 1 22.5354 41.2091 14.9526
621 1 25.5369 21.3139 6.40373
622 1 22.6673 21.6674 3.36058
623 1 25.216 41.6143 16.0408
624 1 28.6681 40.4045 14.1981
625 1 38.2655 41.9805 3.49852
626 1 39.079 39.7268 3.33174
627 1 39.9176 41.4745 1.26135
628 1 30.9151 21.2752 11.242
629 1 36.5579 38.763 2.1245
630 1 35.4161 40.9632 2.14735
631 1 34.5726 39.3841 3.32217
632 1 23.1602 23.8698 15.834
633 1 30.6471 39.798 2.64566
634 1 33.2211 39.1002 1.41221
635 1 32.1791 37.142 3.27323
636 1 28.873 41.0148 1.73205
637 1 41.0326 35.2064 13.8552
638 1 31.622 41.5734 1.27381
639 1 28.8905 38.5959 1.77972
640 1 28.3674 39.8461 20.17
641 1 41.4159 37.1918 5.98856
642 1 23.4027 40.2298 4.6364
643 1 26.4727 39.8444 3.91291
644 1 41.6226 35.7385 11.7504
645 1 41.2416 31.0268 7.96208
646 1 21.6246 41.6032 6.03233
647 1 25.14 39.699 2.68029
648 1 21.1714 36.9891 2.06373
649 1 40.5399 37.3958 2.74597
650 1 39.0602 38.6152 1.07751
651 1 39.4411 35.5079 3.07338
652 1 36.6933 38.1429 20.7146
653 1 37.8313 34.9828 20.6467
654 1 38.016 37.5797 3.0736
655 1 35.1374 35.0279 18.3086
656 1 33.9001 37.8933 20.5418
657 1 31.0579 38.1446 0.978207
658 1 33.8243 36.7971 1.99226
659 1 30.5762 40.2487 20.809
660 1 29.4052 35.2322 20.5709
661 1 29.8038 36.1001 1.71976
662 1 26.9268 39.173 1.24582
663 1 25.7255 39.3288 20.2365
664 1 27.6465 37.5243 20.8617
665 1 25.626 37.4101 3.03019
666 1 25.0907 34.9129 3.96345
667 1 23.0109 36.1844 1.70599
668 1 23.9895 37.7677 0.252645
669 1 22.3855 35.0562 3.64174
670 1 41.5186 38.5284 19.8637
671 1 40.6593 32.1559 2.45469
672 1 36.0628 33.4681 20.7278
673 1 38.7362 32.0236 3.7751
674 1 38.9902 33.8137 1.64517
675 1 36.4281 34.3204 1.61225
676 1 35.345 35.1839 3.82155
677 1 33.1788 34.1247 3.72659
678 1 36.5947 33.0972 3.55091
679 1 35.0124 35.6455 20.6146
680 1 32.2087 35.6792 1.31753
681 1 33.6697 33.9252 1.27536
682 1 30.8455 34.4397 2.98914
683 1 27.0087 36.1458 3.38916
684 1 31.0894 33.8839 20.3567
685 1 27.5446 35.7737 1.22104
686 1 25.482 32.8214 3.43839
687 1 25.0115 35.3666 1.9691
688 1 25.5739 31.0856 1.68815
689 1 24.0602 33.0622 1.13239
690 1 23.3763 32.9939 3.17539
691 1 37.4569 31.907 1.25822
692 1 31.1626 41.6145 5.58956
693 1 38.8381 29.1542 3.96075
694 1 34.7681 32.4592 1.99331
695 1 35.2677 30.2738 1.40196
696 1 30.2118 29.3695 0.441494
697 1 34.4089 29.187 3.95667
698 1 32.8771 29.7061 1.26865
699 1 32.102 32.6167 2.20065
700 1 28.4124 28.6174 2.14944
701 1 26.3425 33.4385 1.39696
702 1 26.05 31.5014 20.6959
703 1 26.4296 30.2451 3.59366
704 1 28.4233 31.9444 4.18395
705 1 23.9755 29.3177 1.67033
706 1 41.8016 26.9382 20.986
707 1 29.6223 41.2921 8.721
708 1 21.957 27.8938 20.2729
709 1 24.1048 30.3795 4.06812
710 1 23.1162 28.1133 3.40797
711 1 40.183 25.5142 0.971251
712 1 40.4629 27.9463 2.29606
713 1 39.2342 24.4714 3.34454
714 1 38.4032 26.6665 2.36531
715 1 36.8391 28.5689 0.506498
716 1 36.6075 23.6092 4.14266
717 1 35.0478 27.3063 2.34317
718 1 35.9048 26.1868 0.870523
719 1 32.4229 27.7432 2.86147
720 1 33.1666 25.3088 2.1869
721 1 33.4503 26.6649 4.48632
722 1 28.2918 31.1379 20.9639
723 1 32.653 27.1665 20.9802
724 1 26.5829 29.3526 0.941115
725 1 27.9339 25.9326 1.77648
726 1 24.5341 24.734 20.9049
727 1 23.5065 23.8446 3.63726
728 1 22.0529 27.0495 1.23313
729 1 41.6877 38.2224 1.03139
730 1 24.6511 26.2883 4.46819
731 1 38.5647 22.1617 3.13162
732 1 24.389 41.4957 2.86997
733 1 28.1452 21.095 19.9526
734 1 35.7856 22.0156 2.27969
735 1 35.6478 22.7268 0.111131
736 1 37.8095 24.7491 1.45256
737 1 35.4947 24.6549 2.12361
738 1 33.5287 23.0887 2.62181
739 1 31.476 24.6308 0.343918
740 1 31.3782 24.8068 2.8784
741 1 29.3337 24.0023 0.999536
742 1 26.9879 24.0797 20.9549
743 1 42.1117 29.5351 20.0537
744 1 26.3849 21.8775 0.63184
745 1 24.7104 23.2524 1.51768
746 1 28.9393 24.9211 4.07104
747 1 27.3504 23.4839 1.74589
748 1 22.4504 22.1389 1.22907
749 1 24.3162 22.0901 20.3802
750 1 23.5553 25.2694 1.60965
751 1 21.2149 20.9905 5.20413
752 1 28.4173 0.111976 19.2647
753 1 32.2323 0.0677738 7.41501
754 1 32.9759 20.966 2.01277
755 1 29.1715 21.0889 1.10891
756 1 41.2263 20.8117 11.9006
757 1 42.1188 9.45118 17.706
758 1 21.8579 12.0123 1.75974
759 1 41.9316 5.73509 1.65816
760 1 39.32 19.8975 13.4524
761 1 27.3889 0.486811 8.58838
762 1 42.0233 7.71769 1.65138
763 1 37.3708 20.53 4.01922
764 1 21.9951 5.39918 10.8878
765 1 39.3175 0.553036 10.2021
766 1 40.1727 10.9933 0.155501
767 1 31.4824 17.4071 19.5921
768 1 30.0789 19.6129 20.5399
769 1 31.3531 16.9914 0.3364
770 1 32.5014 0.89231 12.0529
771 1 28.2618 19.0666 19.1418
772 1 23.2919 19.9978 19.5162
773 1 22.3924 19.5124 17.2991
774 1 41.4428 20.8108 1.74978
775 1 25.8832 20.8548 19.2121
776 1 39.3459 17.0852 19.3102
777 1 40.6142 17.976 17.5302
778 1 21.8207 8.01216 11.709
779 1 26.8059 2.18771 6.65099
780 1 37.157 16.4391 17.4839
781 1 36.1357 16.7115 0.453596
782 1 34.8195 14.8942 17.2883
783 1 33.4638 16.1145 0.293269
784 1 34.1126 14.6072 20.9356
785 1 34.909 16.1621 18.9948
786 1 29.2151 15.9044 19.0712
787 1 28.7727 17.5286 20.7561
788 1 29.3166 13.6556 20.1916
789 1 26.9241 19.331 0.118979
790 1 27.1693 16.7457 19.1164
791 1 24.0199 15.8756 19.3591
792 1 22.1154 16.649 5.9947
793 1 22.8834 15.2233 17.7412
794 1 21.6203 17.4264 15.8112
795 1 22.1727 16.2229 20.721
796 1 25.7989 15.1521 17.305
797 1 40.2417 13.5022 19.8775
798 1 40.2176 11.8083 16.866
799 1 41.9666 12.3626 0.413244
800 1 39.3603 14.7022 18.3008
801 1 37.949 12.2209 20.1227
802 1 38.089 11.8032 17.8363
803 1 34.5491 12.9504 1.28958
804 1 33.3115 13.7155 19.3837
805 1 35.5711 13.0109 19.3208
806 1 30.8603 10.7366 16.8442
807 1 33.8638 11.4162 18.522
808 1 27.7825 11.2954 0.409192
809 1 27.4575 10.5521 17.8914
810 1 25.3848 14.0275 18.9497
811 1 24.3042 12.774 17.1441
812 1 26.1792 12.9174 20.9593
813 1 25.1965 10.8367 20.6509
814 1 21.4034 10.746 18.5876
815 1 23.7365 12.4251 19.8561
816 1 22.9188 14.0551 0.0530741
817 1 21.7232 11.0638 20.7215
818 1 40.3891 7.82153 18.6894
819 1 39.8038 5.5533 17.8536
820 1 38.9951 19.3442 19.0354
821 1 38.9436 9.65215 19.4075
822 1 35.9979 10.8419 19.103
823 1 38.1096 7.4143 17.3345
824 1 37.4331 6.21236 19.6166
825 1 32.1508 9.89034 18.6717
826 1 36.5547 8.6583 18.7411
827 1 29.4789 10.969 19.3446
828 1 26.5296 9.35332 19.5172
829 1 23.607 9.66989 19.3929
830 1 22.5908 7.80681 20.8846
831 1 21.5113 8.47939 18.6144
832 1 26.6631 0.659721 15.0956
833 1 40.805 3.01915 18.1004
834 1 40.6282 6.83063 21.0486
835 1 41.1986 4.73897 20.9946
836 1 39.4206 3.73266 19.8226
837 1 37.5953 4.58131 17.714
838 1 34.9812 2.75407 19.5445
839 1 37.3326 1.7103 18.3412
840 1 31.1048 5.10534 20.65
841 1 34.1253 3.8179 16.2835
842 1 33.3613 3.82922 18.4118
843 1 35.0379 5.19921 19.6722
844 1 29.2067 6.76633 19.8638
845 1 29.2503 4.92937 18.6997
846 1 31.2038 8.44624 1.9695
847 1 26.8807 5.41185 19.0594
848 1 25.4054 4.58463 21.0037
849 1 25.8635 6.12723 17.2076
850 1 24.634 7.75224 19.4583
851 1 23.3921 6.86385 18.0318
852 1 23.463 4.35255 17.1115
853 1 24.5536 5.38992 19.295
854 1 21.8956 4.92758 18.8705
855 1 22.2777 11.5361 8.20713
856 1 41.1034 0.950593 1.98216
857 1 40.2053 1.75948 20.8117
858 1 37.7462 20.9572 15.7086
859 1 34.7175 0.752299 19.0376
860 1 21.7621 15.1316 4.4659
861 1 26.5167 20.6164 12.8379
862 1 32.5914 2.02254 20.4397
863 1 22.3881 0.0734946 8.31374
864 1 30.4844 0.37275 17.5489
865 1 24.3387 7.59052 10.7531
866 1 27.3986 3.01223 18.9268
867 1 25.7476 0.588498 19.854
868 1 21.2929 1.18483 16.3263
869 1 29.9407 2.9104 19.3278
870 1 26.0602 1.72853 17.7128
871 1 25.261 0.612149 1.22272
872 1 41.6266 19.7158 18.4052
873 1 25.0507 3.43514 18.3065
874 1 26.2627 2.60524 21.1428
875 1 21.4645 2.47939 18.1653
876 1 23.0208 1.09913 19.7053
877 1 40.1456 20.4897 15.7745
878 1 38.5316 18.3128 14.0623
879 1 35.5535 18.7153 17.5239
880 1 22.74 19.2792 12.8795
881 1 37.02 19.9068 13.0681
882 1 35.7797 19.2212 15.291
883 1 36.5326 17.1037 12.6553
884 1 34.2829 20.4989 13.7446
885 1 33.1513 18.2578 18.0113
886 1 35.0742 16.886 16.0196
887 1 34.5079 17.837 13.3296
888 1 33.0943 16.2822 15.6693
889 1 33.8763 19.4362 16.2111
890 1 30.1109 19.9603 15.2756
891 1 27.9109 19.4882 16.0938
892 1 30.332 19.1937 17.0979
893 1 31.9479 18.7757 15.1499
894 1 41.1613 18.9378 12.4427
895 1 25.2231 19.0225 15.8403
896 1 28.2997 20.6516 4.65798
897 1 26.1522 18.5103 18.398
898 1 24.069 17.9739 17.6255
899 1 21.7653 18.7076 4.84117
900 1 22.0061 17.2696 18.413
901 1 41.8066 9.93883 20.7668
902 1 40.6112 18.0078 14.8974
903 1 39.2208 16.5259 16.5464
904 1 41.5044 15.4606 16.7353
905 1 40.7429 15.8042 14.5299
906 1 36.4658 14.3802 15.3338
907 1 38.8199 15.5188 13.7867
908 1 37.0369 16.5702 14.9514
909 1 32.1774 15.245 17.6683
910 1 32.7053 15.5122 13.9896
911 1 33.9891 13.8261 15.1755
912 1 33.1888 13.7195 12.4617
913 1 29.975 15.576 15.4206
914 1 27.7394 12.5488 19.1971
915 1 27.62 15.0426 16.6459
916 1 31.7593 13.6095 15.0629
917 1 30.9839 16.9134 16.8239
918 1 28.9618 17.5064 17.2314
919 1 24.7941 18.4146 20.3419
920 1 26.4237 17.027 16.1522
921 1 24.0845 15.7044 15.5505
922 1 24.0635 14.451 13.5869
923 1 21.7129 15.0958 14.392
924 1 37.8376 9.0383 16.2163
925 1 40.9441 11.5876 13.037
926 1 39.6172 8.83431 13.8398
927 1 38.5496 13.837 16.6409
928 1 36.2859 10.3138 16.7552
929 1 37.5559 9.62017 14.2975
930 1 38.4776 11.4439 15.3894
931 1 35.9811 12.6275 16.7
932 1 35.1156 15.4505 13.6023
933 1 29.3972 14.369 17.5142
934 1 33.9065 10.5077 16.3853
935 1 30.9848 12.7236 18.4906
936 1 32.8626 12.9606 16.9812
937 1 29.3813 12.5452 16.8065
938 1 27.8556 10.6827 15.7001
939 1 26.7046 12.8921 17.1835
940 1 24.9092 11.0404 18.2148
941 1 25.4369 11.0116 15.8752
942 1 23.533 12.8084 15.1047
943 1 23.1714 10.5392 17.0044
944 1 35.232 0.457164 11.3097
945 1 22.8677 10.9856 14.0356
946 1 21.6304 13.524 13.0939
947 1 39.9945 9.60451 16.4253
948 1 40.7114 6.64746 13.3564
949 1 41.4628 7.42151 16.4189
950 1 41.0212 10.6975 14.7546
951 1 36.6268 7.30026 14.6341
952 1 35.211 7.91108 16.7552
953 1 35.8741 6.10958 17.7651
954 1 37.2995 11.2737 13.0146
955 1 32.2793 8.50494 16.1873
956 1 33.5664 7.60572 18.2784
957 1 35.045 9.10419 14.7498
958 1 31.2419 7.7206 18.8574
959 1 30.2512 8.68882 15.8261
960 1 30.443 6.79287 17.2004
961 1 27.9128 7.84122 13.8829
962 1 27.4798 8.44331 16.0361
963 1 29.4564 9.10992 17.7908
964 1 25.5881 8.68603 17.5302
965 1 22.6327 8.74941 15.5882
966 1 21.9896 6.5262 13.743
967 1 40.5023 5.18049 15.6794
968 1 39.457 4.63386 13.3826
969 1 40.7511 18.0593 9.35542
970 1 37.5686 5.73755 13.4008
971 1 39.3391 7.26938 15.2059
972 1 38.0161 5.4377 15.6524
973 1 38.8595 3.10152 16.5746
974 1 36.3924 3.24287 15.4605
975 1 35.5473 1.43273 15.9491
976 1 35.6953 2.90492 17.4619
977 1 32.7094 5.56718 18.5824
978 1 32.06 4.52347 14.0829
979 1 28.4603 5.9254 17.0897
980 1 29.6112 4.1993 15.2283
981 1 24.7783 5.12584 14.8475
982 1 28.6226 5.92688 11.9592
983 1 27.6813 7.68476 18.3523
984 1 26.9628 6.08903 14.685
985 1 22.4122 5.90579 15.8146
986 1 23.0523 1.09467 14.8305
987 1 25.1051 7.53153 15.839
988 1 40.6515 17.8068 20.7082
989 1 30.087 0.592608 4.57027
990 1 41.7335 1.03662 17.9907
991 1 37.752 0.721633 16.3851
992 1 38.8607 2.06036 14.6346
993 1 31.999 2.33054 15.9336
994 1 32.2262 2.09622 18.4208
995 1 36.1477 0.977676 14.044
996 1 31.3615 4.99886 16.3025
997 1 29.2736 2.79751 17.1415
998 1 28.7611 1.57051 14.7301
999 1 21.4986 17.2469 12.5578
1000 1 27.096 3.30084 14.8726
1001 1 24.73 2.7548 15.9145
1002 1 27.355 4.26397 17.0046
1003 1 41.6404 16.5335 3.14011
1004 1 41.9666 0.128018 20.2487
1005 1 39.5703 17.2181 11.857
1006 1 21.3761 4.11717 12.446