LAMMPS (11 Aug 2017)
# Nuclear model with 75% neutrons and 25% protons
# Run to generate equilibrium position

units             lj
atom_style        atomic

pair_style        table linear 5000
boundary          p p p

read_data	  data.input_ZNyN
  orthogonal box = (0 0 0) to (42.2 42.2 42.2)
  1 by 1 by 1 MPI processor grid
WARNING: Atom style in data file differs from currently defined atom style (../read_data.cpp:493)
  reading atoms ...
  6000 atoms
  reading velocities ...
  6000 velocities

neighbor          1.2 bin
neigh_modify      every 1 delay 0 check yes one 8000 page 80000

timestep          0.1

thermo_style      custom step temp ke epair etotal press cpu
thermo            200
pair_coeff        1 1 pandha_msc.table NN 5.4
pair_coeff        1 2 pandha_msc.table NP 5.4
pair_coeff        2 2 pandha_msc.table PP 5.4

variable          p_step equal step
variable          p_temp equal temp
variable          p_ke equal ke
variable          p_epair equal epair
variable          p_tot equal etotal

fix               escribir all print 200 "${p_step} ${p_temp} ${p_ke} ${p_epair} ${p_tot}" file thermo.dat screen no title "step  temp ke epair etotal"

dump              myDUMP all custom 2000 eq_t_2.lammpstrj id type x y z vx vy vz
fix               1 all nvt temp 2.0 2.0 10.0

write_restart     eq_t_2_*.restart
Neighbor list info ...
  update every 1 steps, delay 0 steps, check yes
  max neighbors/atom: 8000, page size: 80000
  master list distance cutoff = 6.6
  ghost atom cutoff = 6.6
  binsize = 3.3, bins = 13 13 13
  1 neighbor lists, perpetual/occasional/extra = 1 0 0
  (1) pair table, perpetual
      attributes: half, newton on
      pair build: half/bin/atomonly/newton
      stencil: half/bin/3d/newton
      bin: standard
run 20000
Per MPI rank memory allocation (min/avg/max) = 6.007 | 6.007 | 6.007 Mbytes
Step Temp KinEng E_pair TotEng Press CPU 
       0    1.0325194    1.5485209    4.8494575    6.3979784    1.3964372            0 
     200    2.9985965    4.4971451    1.5645826    6.0617276    1.2661433    2.6189351 
     400    3.1761015    4.7633582  -0.97854549    3.7848128    1.0417749    5.9223092 
     600    2.4920048    3.7373842   -2.1451702     1.592214   0.94163597    10.068204 
     800    1.9238793     2.885338   -2.3692786   0.51605945   0.93415968    13.950593 
    1000    1.9635785    2.9448769   -2.2383717   0.70650517   0.98353845     17.34905 
    1200    2.1018391    3.1522332   -2.1216452     1.030588   0.96726368    20.995392 
    1400    2.0120378    3.0175537    -2.443907   0.57364665   0.87653511    24.025294 
    1600     1.889936    2.8344316   -2.4903324   0.34409916   0.81472146    27.190545 
    1800    2.0168406    3.0247566   -2.2140598   0.81069683   0.81958713    30.094484 
    2000    1.9875855    2.9808813   -1.9265394     1.054342   0.83139506    32.849942 
    2200    1.9972031    2.9953053   -1.8666096    1.1286958   0.84647417    35.727171 
    2400    1.9784601    2.9671955   -1.9065125     1.060683   0.83282115    38.377531 
    2600    1.9999133    2.9993699   -2.0445439   0.95482597    0.8334426      41.0402 
    2800    2.0277102    3.0410584   -2.1621873   0.87887109   0.83229955    44.035919 
    3000    1.9759693      2.96346   -2.1803939   0.78306607   0.83028339    46.781166 
    3200    2.0356486    3.0529639   -2.1507995   0.90216447   0.84194857    49.403642 
    3400    2.0151443    3.0222126   -2.1196723   0.90254026   0.84482945     52.33848 
    3600    1.9923195    2.9879812   -2.1209134   0.86706775    0.8391228    55.045038 
    3800    1.9925156    2.9882753   -2.1455448   0.84273049   0.83192377    58.067081 
    4000    1.9982343    2.9968519     -2.20573   0.79112186     0.820485    61.410389 
    4200    1.9974384    2.9956582   -2.1506856    0.8449726   0.82716319    65.111418 
    4400    2.0066712    3.0095052   -2.0911083   0.91839687   0.82921625    68.342803 
    4600    2.0144986    3.0212442   -2.1173214   0.90392284   0.82072854    71.220179 
    4800    1.9996255    2.9989383    -2.072201   0.92673727   0.82727791    73.997063 
    5000