LAMMPS (11 Aug 2017)
# Nuclear model with 75% neutrons and 25% protons
# Run to generate equilibrium position

units             lj
atom_style        atomic

pair_style        table linear 5000
boundary          p p p

read_data	  data.input_ZNyN
  orthogonal box = (0 0 0) to (42.2 42.2 42.2)
  1 by 1 by 1 MPI processor grid
WARNING: Atom style in data file differs from currently defined atom style (../read_data.cpp:493)
  reading atoms ...
  6000 atoms
  reading velocities ...
  6000 velocities

neighbor          1.2 bin
neigh_modify      every 1 delay 0 check yes one 8000 page 80000

timestep          0.1

thermo_style      custom step temp ke epair etotal press cpu
thermo            200
pair_coeff        1 1 pandha_msc.table NN 5.4
pair_coeff        1 2 pandha_msc.table NP 5.4
pair_coeff        2 2 pandha_msc.table PP 5.4

variable          p_step equal step
variable          p_temp equal temp
variable          p_ke equal ke
variable          p_epair equal epair
variable          p_tot equal etotal

fix               escribir all print 200 "${p_step} ${p_temp} ${p_ke} ${p_epair} ${p_tot}" file thermo.dat screen no title "step  temp ke epair etotal"

dump              myDUMP all custom 2000 eq_t_2_*.lammpstrj id type x y z vx vy vz
fix               1 all nvt temp 2.0 2.0 10.0

run 20000
Neighbor list info ...
  update every 1 steps, delay 0 steps, check yes
  max neighbors/atom: 8000, page size: 80000
  master list distance cutoff = 6.6
  ghost atom cutoff = 6.6
  binsize = 3.3, bins = 13 13 13
  1 neighbor lists, perpetual/occasional/extra = 1 0 0
  (1) pair table, perpetual
      attributes: half, newton on
      pair build: half/bin/atomonly/newton
      stencil: half/bin/3d/newton
      bin: standard
Per MPI rank memory allocation (min/avg/max) = 5.927 | 5.927 | 5.927 Mbytes
Step Temp KinEng E_pair TotEng Press CPU 
       0    1.0325194    1.5485209    4.8494575    6.3979784    1.3964372            0 
     200    2.9985965    4.4971451    1.5645826    6.0617276    1.2661433    2.1654751 
     400    3.1761015    4.7633582  -0.97854549    3.7848128    1.0417749    4.3689952 
     600    2.4920048    3.7373842   -2.1451702     1.592214   0.94163597    6.6891661 
     800    1.9238793     2.885338   -2.3692786   0.51605945   0.93415968    9.1402872 
    1000    1.9635785    2.9448769   -2.2383717   0.70650517   0.98353845    12.100074 
    1200    2.1018391    3.1522332   -2.1216452     1.030588   0.96726368    14.648292 
    1400    2.0120378    3.0175537    -2.443907   0.57364665   0.87653511    17.015596 
    1600     1.889936    2.8344316   -2.4903324   0.34409916   0.81472146    19.647723 
    1800    2.0168406    3.0247566   -2.2140598   0.81069683   0.81958713    21.995909 
    2000    1.9875855    2.9808813   -1.9265394     1.054342   0.83139506    24.141494 
    2200    1.9972031    2.9953053   -1.8666096    1.1286958   0.84647417    26.355392 
    2400    1.9784601    2.9671955   -1.9065125     1.060683   0.83282115    28.741355 
    2600    1.9999133    2.9993699   -2.0445439   0.95482597    0.8334426    30.836565 
    2800    2.0277102    3.0410584   -2.1621873   0.87887109   0.83229955    32.930305 
    3000    1.9759693      2.96346   -2.1803939   0.78306607   0.83028339    35.416577 
    3200    2.0356486    3.0529639   -2.1507995   0.90216447   0.84194857    37.676939 
    3400    2.0151443    3.0222126   -2.1196723   0.90254026   0.84482945     39.78829 
    3600    1.9923195    2.9879812   -2.1209134   0.86706775    0.8391228    42.150777 
    3800    1.9925156    2.9882753   -2.1455448   0.84273049   0.83192377    44.641539 
    4000    1.9982343    2.9968519     -2.20573   0.79112186     0.820485    46.850442 
    4200    1.9974384    2.9956582   -2.1506856    0.8449726   0.82716319     48.85933 
    4400    2.0066712    3.0095052   -2.0911083   0.91839687   0.82921625    51.196904 
    4600    2.0144986    3.0212442   -2.1173214   0.90392284   0.82072854    53.464039 
    4800    1.9996255    2.9989383    -2.072201   0.92673727   0.82727791    55.543575 
    5000    1.9914924    2.9867407   -2.0746149   0.91212576    0.8284986    57.750603 
    5200    1.9701555    2.9547408   -2.1112923   0.84344853   0.82583134    60.121999 
    5400    1.9947144    2.9915729   -2.0784099   0.91316299   0.83134349    62.291189 
    5600    2.0436155    3.0649123   -2.1355642   0.92934813   0.82990839    64.324715 
    5800    1.9838033    2.9752089   -2.1431254   0.83208355    0.8241431    67.120877 
    6000    2.0227542    3.0336256   -2.1278121   0.90581351   0.82754293    69.839789 
    6200    2.0134066    3.0196065   -2.1496269    0.8699796    0.8235714    72.940542 
    6400    2.0078004    3.0111986   -2.1298497   0.88134892   0.82408006    75.685672 
    6600    1.9771238    2.9651914   -2.0750685   0.89012294   0.81890471    78.273042 
    6800    2.0027348    3.0036015   -2.0618788   0.94172277   0.82657001    80.731415 
    7000     1.984323    2.9759885   -2.0756719   0.90031654   0.82152083    83.505123 
    7200    1.9927419    2.9886147    -2.108426   0.88018869   0.81888575    86.552251 
    7400    1.9975879    2.9958824   -2.0995877   0.89629476   0.81645376    90.045203 
    7600    1.9974509    2.9956769   -2.0772673   0.91840962   0.82802655    93.235627 
    7800    1.9745533    2.9613364   -2.0998513   0.86148509   0.81638143    96.251896 
    8000     2.029642    3.0439556   -2.0819641   0.96199148   0.82859972    98.938987 
    8200    2.0042356    3.0058524   -2.1161034   0.88974896   0.82386554    101.37923 
    8400    1.9943683    2.9910538   -2.1503581   0.84069569   0.81565819    104.24208 
    8600    2.0325577    3.0483285   -2.1036528    0.9446757   0.82665536    107.98213 
    8800    2.0075396    3.0108075   -2.0656705   0.94513701    0.8285598    112.21361 
    9000     1.975086    2.9621353   -2.0751437   0.88699156    0.8236617    116.38771 
    9200    1.9979367    2.9964055   -2.0606681   0.93573739   0.81919126    120.13512 
    9400    2.0028112    3.0037161   -2.0345762   0.96913994   0.82958778    122.95577 
    9600    1.9858877    2.9783351   -2.0988514   0.87948365   0.81853034    125.83839 
    9800    1.9928737    2.9888123   -2.0937173   0.89509506   0.82357499    129.20742 
   10000    1.9772613    2.9653976   -2.0399752   0.92542248   0.82665259    132.66659 
   10200    2.0220903      3.03263   -2.0665377   0.96609226   0.83194658    135.70836 
   10400     1.992537    2.9883073   -2.1212745   0.86703281   0.82269268    138.64274 
   10600    1.9957777    2.9931677   -2.1159542   0.87721347   0.81362253    141.48072 
   10800     2.008719    3.0125764   -2.0622833    0.9502931   0.81947345    145.35434 
   11000    1.9786243    2.9674418   -2.0360212   0.93142059   0.82781598      148.096 
   11200    1.9881765    2.9817676   -2.1107047   0.87106291   0.81842384    150.95925 
   11400    2.0278364    3.0412476    -2.121288   0.91995965   0.82110831    153.94977 
   11600    1.9801902    2.9697902   -2.1149558    0.8548344   0.82100341    156.74392 
   11800    1.9737545    2.9601383   -2.0512917   0.90884655   0.81915071    159.89116 
   12000     2.013894    3.0203376   -2.0816074    0.9387302   0.81859964    162.86795 
   12200    1.9563568    2.9340462   -2.0792057   0.85484048   0.82023471    165.57977 
   12400     2.020475    3.0302073   -2.0536848   0.97652251   0.81559927    168.63432 
   12600    1.9865109    2.9792697   -2.0592911   0.91997856   0.82001829    171.37346 
   12800    2.0053349     3.007501   -2.1075843   0.89991673   0.82604399     174.2559 
   13000    1.9799994    2.9695041   -2.0899807    0.8795235   0.81146246     177.4193 
   13200    2.0222053    3.0328025   -2.0740927   0.95870973   0.82820238    180.06112 
   13400    1.9910049    2.9860096    -2.096901   0.88910854   0.82454209    182.96451 
   13600     2.007461    3.0106896   -2.1287996   0.88189004   0.81288086     185.9614 
   13800    1.9954279     2.992643   -2.0825715   0.91007147   0.82101853    188.72884 
   14000    1.9888035    2.9827081   -2.0735498   0.90915826    0.8184472    191.29163 
   14200    1.9993998    2.9985998   -2.0090856   0.98951425    0.8258214    193.70811 
   14400    1.9922151    2.9878245   -2.1105188   0.87730572   0.81368139    196.46373 
   14600    1.9882784    2.9819206   -2.1145465   0.86737409    0.8141205    199.85039 
   14800     2.015755    3.0231285   -2.0808377    0.9422908   0.81797314    203.11882 
   15000    1.9880605    2.9815937   -2.0739626   0.90763118   0.81879878    206.11803 
   15200    2.0289707    3.0429489   -2.0780168   0.96493209   0.82624296    208.79989 
   15400    1.9817814    2.9721766   -2.0622962   0.90988042    0.8139252     211.8781 
   15600    1.9970931    2.9951403   -2.0782121   0.91692828   0.81526056     214.7586 
   15800    2.0298812    3.0443144   -2.0607422   0.98357221   0.82561263    217.47933 
   16000    1.9971507    2.9952267   -2.1086051   0.88662169   0.82351304    220.03277 
   16200     2.018657    3.0274808   -2.0546042   0.97287662   0.81751491    222.56374 
   16400    1.9685222    2.9522911   -2.0625839   0.88970721   0.81562656     225.2514 
   16600    1.9820865    2.9726342   -2.0737949   0.89883929   0.82498282    229.11309 
   16800    2.0101782    3.0147648   -2.0859189   0.92884591    0.8228596    232.29626 
   17000    1.9660615    2.9486007   -2.0641569   0.88444379   0.82047445    235.21607 
   17200    2.0138394    3.0202556   -2.0474857   0.97276988   0.82315823    237.84198 
   17400    1.9817089    2.9720679   -2.1173586   0.85470926   0.81722258     240.4013 
   17600    1.9910403    2.9860627   -2.0982081   0.88785455    0.8203718    242.94212 
   17800    2.0259895    3.0384777   -2.1004561   0.93802169   0.81581233    245.73753 
   18000    1.9797183    2.9690826   -2.0775556   0.89152695   0.81872084    249.56047 
   18200    2.0130125    3.0190155   -2.0985975   0.92041798   0.81286559    252.57364 
   18400    1.9714673    2.9567081   -2.0472852    0.9094229    0.8167587    255.38319 
   18600    2.0043081    3.0059611   -2.0420265   0.96393461   0.82936939    258.23159 
   18800    2.0036718    3.0050067   -2.0232649   0.98174181    0.8255694    261.31105 
   19000     2.006046    3.0085675   -2.0935956   0.91497188    0.8141844    264.08814 
   19200    1.9888811    2.9828244   -2.1084667   0.87435769   0.81254993    266.60125 
   19400    2.0257969    3.0381889   -2.0586686   0.97952038   0.82159646     268.9792 
   19600    1.9854008    2.9776049   -2.0563607   0.92124415   0.81923583    271.62176 
   19800    1.9999522    2.9994283   -2.1074523   0.89197601   0.81482744    274.61395 
   20000     2.005116    3.0071728   -2.0588941   0.94827865   0.82155564    278.31153 
Loop time of 278.312 on 1 procs for 20000 steps with 6000 atoms

Performance: 620886.874 tau/day, 71.862 timesteps/s
99.9% CPU use with 1 MPI tasks x no OpenMP threads

MPI task timing breakdown:
Section |  min time  |  avg time  |  max time  |%varavg| %total
---------------------------------------------------------------
Pair    | 251.99     | 251.99     | 251.99     |   0.0 | 90.54
Neigh   | 15.104     | 15.104     | 15.104     |   0.0 |  5.43
Comm    | 2.6015     | 2.6015     | 2.6015     |   0.0 |  0.93
Output  | 0.29134    | 0.29134    | 0.29134    |   0.0 |  0.10
Modify  | 6.6883     | 6.6883     | 6.6883     |   0.0 |  2.40
Other   |            | 1.641      |            |       |  0.59

Nlocal:    6000 ave 6000 max 6000 min
Histogram: 1 0 0 0 0 0 0 0 0 0
Nghost:    7547 ave 7547 max 7547 min
Histogram: 1 0 0 0 0 0 0 0 0 0
Neighs:    287111 ave 287111 max 287111 min
Histogram: 1 0 0 0 0 0 0 0 0 0

Total # of neighbors = 287111
Ave neighs/atom = 47.8518
Neighbor list builds = 706
Dangerous builds = 0
Total wall time: 0:04:38
