LAMMPS (11 Aug 2017)
# Nuclear model with 75% neutrons and 25% protons
# Run to generate equilibrium position

units             lj
atom_style        atomic

pair_style        table linear 5000
boundary          p p p

read_data	  data.input_ZNyN
  orthogonal box = (0 0 0) to (42.2 42.2 42.2)
  1 by 1 by 1 MPI processor grid
WARNING: Atom style in data file differs from currently defined atom style (../read_data.cpp:493)
  reading atoms ...
  6000 atoms
  reading velocities ...
  6000 velocities

neighbor          1.2 bin
neigh_modify      every 1 delay 0 check yes one 8000 page 80000

timestep          0.1

thermo_style      custom step temp ke epair etotal press cpu
thermo            200
pair_coeff        1 1 pandha_msc.table NN 5.4
pair_coeff        1 2 pandha_msc.table NP 5.4
pair_coeff        2 2 pandha_msc.table PP 5.4

variable          p_step equal step
variable          p_temp equal temp
variable          p_ke equal ke
variable          p_epair equal epair
variable          p_tot equal etotal

fix               escribir all print 200 "${p_step} ${p_temp} ${p_ke} ${p_epair} ${p_tot}" file thermo.dat screen no title "step  temp ke epair etotal"

dump              myDUMP all custom 2000 eq_t_4.lammpstrj id type x y z vx vy vz
fix               1 all nvt temp 4.0 4.0 10.0

write_restart 	  eq_t_4_*.restart
Neighbor list info ...
  update every 1 steps, delay 0 steps, check yes
  max neighbors/atom: 8000, page size: 80000
  master list distance cutoff = 6.6
  ghost atom cutoff = 6.6
  binsize = 3.3, bins = 13 13 13
  1 neighbor lists, perpetual/occasional/extra = 1 0 0
  (1) pair table, perpetual
      attributes: half, newton on
      pair build: half/bin/atomonly/newton
      stencil: half/bin/3d/newton
      bin: standard
run 20000
Per MPI rank memory allocation (min/avg/max) = 6.007 | 6.007 | 6.007 Mbytes
Step Temp KinEng E_pair TotEng Press CPU 
       0    1.0325194    1.5485209    4.8494575    6.3979784    1.3964372            0 
     200    3.8646737    5.7960443    1.8007286    7.5967729    1.3575293    2.5145721 
     400    4.6935451    7.0391443  -0.35140741    6.6877369    1.2342452    5.8844922 
     600    4.0027012    6.0030511    -1.018312    4.9847391    1.1903986     9.131813 
     800    3.7814615    5.6712469  -0.54669684    5.1245501    1.2831726    12.334305 
    1000    4.1678933    6.2507979  -0.20361578    6.0471821    1.3216796    15.303541 
    1200    4.0471541    6.0697194    -0.634098    5.4356214    1.2003305    17.696687 
    1400    3.8100831    5.7141722  -0.98399183    4.7301803    1.0909487    20.251591 
    1600    3.9144829    5.8707457  -0.50829708    5.3624486    1.1029375    22.716851 
    1800    4.0945124     6.140745 -0.078870355    6.0618746    1.1409218    24.870328 
    2000    4.0052361    6.0068528 -0.036551638    5.9703011    1.1407534    27.155097 
    2200    3.9839062    5.9748634  -0.34958177    5.6252816    1.1251437    29.487146 
    2400    4.0077554    6.0106311  -0.54315408    5.4674771    1.1141474     31.67343 
    2600    3.9755511    5.9623328   -0.5678317    5.3945011     1.104967    33.771354 
    2800    3.9835303    5.9742995  -0.49973518    5.4745643    1.1203842    36.183274 
    3000    4.0439196    6.0648685  -0.43669018    5.6281783     1.132753    38.971897 
    3200    3.9695725    5.9533664  -0.51400432    5.4393621    1.1144256    42.313351 
    3400    4.0316044    6.0463988  -0.50761372    5.5387851    1.1111131    45.056707 
    3600    3.9554783    5.9322285  -0.44213352     5.490095    1.1068368     47.65899 
    3800    4.0122502    6.0173722  -0.50298144    5.5143907    1.1067579    50.199745 
    4000    3.9990752     5.997613  -0.46084155    5.5367714    1.1107845    53.179815 
    4200    4.0146216    6.0209288  -0.50433339    5.5165954    1.0963228    55.737329 
    4400    3.9417165    5.9115894  -0.45945364    5.4521357    1.1064999    58.245042 
    4600    3.9768516    5.9642832  -0.49682461    5.4674586     1.103909    61.032886 
    4800    4.0028687    6.0033023  -0.51207041    5.4912319    1.1074116    64.355908 
    5000    4.0205239    6.0297807  -0.50732365     5.522457    1.1065969     68.22507 
    5200    3.9808463    5.9702742  -0.44372544    5.5265488    1.1102323    71.284579 
    5400    4.0041825    6.0052727  -0.52744376    5.4778289    1.1069675     74.20263 
    5600    3.9636003    5.9444095  -0.47060684    5.4738027    1.1000503    77.529143 
    5800    4.0532448    6.0788539  -0.48785123    5.5910027    1.1008268    81.085968 
    6000    3.9382336    5.9063659    -0.447132    5.4592339     1.099289    84.339032 
    6200    4.0589208    6.0873665  -0.43914153     5.648225    1.1166881    87.392087 
    6400    4.0586273    6.0869263  -0.53321948    5.5537068    1.1092637    90.424057 
    6600    3.9642046    5.9453159  -0.49041604    5.4548999    1.0932661      94.4409 
    6800    4.0544331    6.0806361  -0.44474328    5.6358928    1.1076449    98.346805 
    7000    4.0179807    6.0259666  -0.48784008    5.5381265    1.1076527    101.78026 
    7200    4.0152508    6.0218725  -0.46848994    5.5533825    1.1083578    104.77655 
    7400    3.9373742     5.905077  -0.42018895    5.4848881    1.0976808    107.80759 
    7600    4.0358804    6.0528117  -0.51778128    5.5350304    1.1015599    110.99322 
    7800     4.004202     6.005302  -0.49127973    5.5140222    1.1122922    113.94342 
    8000    3.9755412     5.962318  -0.48930232    5.4730156    1.0941566    117.38467 
    8200    4.0278173     6.040719  -0.50359497     5.537124    1.1126895    120.19345 
    8400    3.9265343    5.8888198  -0.44288246    5.4459374    1.0977186    122.95457 
    8600    4.0557125    6.0825548  -0.49173932    5.5908155    1.1004796     126.1291 
    8800    3.9749994    5.9615053   -0.4781182    5.4833871    1.1046652      129.056 
    9000    3.9949988    5.9914994  -0.49598415    5.4955153    1.1031726    132.13433 
    9200    4.0076001    6.0103982  -0.46291992    5.5474783    1.1031452     135.1022 
    9400    3.9261355    5.8882217  -0.49783355    5.3903881     1.098501    137.86459 
    9600    4.0065996    6.0088978  -0.46802771    5.5408701    1.1093526    140.95948 
    9800     3.966888    5.9493402  -0.46892998    5.4804102    1.0970497    144.02245 
   10000    4.0718968    6.1068272  -0.49636766    5.6104595    1.1157156    147.05959 
   10200    3.9880397    5.9810626  -0.49232678    5.4887358    1.1111901    150.09019 
   10400    3.9365988     5.903914  -0.44133209    5.4625819    1.1038282    152.85898 
   10600    4.0610824    6.0906084  -0.49131071    5.5992976    1.1024762    155.54486 
   10800    3.9633787    5.9440772  -0.44569828    5.4983789    1.1063781    158.08789 
   11000    4.0262332    6.0383432  -0.48171318    5.5566301    1.1087645    160.91197 
   11200    3.9491261    5.9227019  -0.47597615    5.4467257    1.0978108    163.91261 
   11400    4.0644024    6.0955875  -0.51973029    5.5758572    1.1051143    167.38254 
   11600    4.0008015    6.0002021  -0.50341805    5.4967841     1.099489    170.56862 
   11800    3.9588909    5.9373466  -0.46628385    5.4710627    1.1077607    173.43132 
   12000     4.072997    6.1084773   -0.5167956    5.5916817    1.1029593     176.6067 
   12200    3.9497882    5.9236949  -0.57491162    5.3487832    1.0877231    179.48929 
   12400    4.0031427    6.0037132  -0.51614187    5.4875713    1.0999077    182.21286 
   12600    4.0147006    6.0210472  -0.51603647    5.5050107    1.1030962    185.34007 
   12800    3.9228781    5.8833365  -0.56656196    5.3167745    1.0880312      188.325 
   13000    4.0118612    6.0167889  -0.47321835    5.5435705     1.105801    191.19691 
   13200    4.0241629    6.0352383  -0.55146929     5.483769    1.1119608    193.60771 
   13400     3.952897    5.9283573  -0.52522489    5.4031324     1.096859    196.27111 
   13600    3.9784874    5.9667365  -0.41901704    5.5477194    1.1084066    199.29169 
   13800    3.9489419    5.9224257  -0.45502764     5.467398    1.1096461    203.05574 
   14000    4.0807151    6.1200525   -0.5116593    5.6083932    1.1152766    206.43122 
   14200    3.9891232    5.9826875  -0.50061175    5.4820758    1.1073657    209.15437 
   14400    3.9836578    5.9744908  -0.50367577     5.470815    1.1060176    212.10922 
   14600      4.06839     6.101568  -0.50521269    5.5963553    1.1049564    215.24791 
   14800    4.0476718    6.0704957  -0.43038014    5.6401156    1.1096995     218.1089 
   15000    3.9696865    5.9535373  -0.51516728    5.4383701    1.1011612    221.36187 
   15200    4.0329174    6.0483679  -0.51202814    5.5363398    1.1095567    224.20237 
   15400    3.9998969    5.9988453  -0.39462738    5.6042179     1.108062    226.99988 
   15600    3.9799552    5.9689378  -0.46612825    5.5028095    1.1080417    230.18607 
   15800     4.055763    6.0826306   -0.5396276     5.543003    1.1121142    233.10934 
   16000    3.9186383    5.8769777   -0.5142241    5.3627536    1.0964887    236.42924 
   16200    4.0101763    6.0142619  -0.45874766    5.5555142    1.1114599     239.6194 
   16400    3.9475978    5.9204098  -0.43736029    5.4830495    1.1061242    242.39519 
   16600    4.0200328    6.0290442  -0.51383293    5.5152113    1.1072029     244.9649 
   16800    4.0163891    6.0235795  -0.51888307    5.5046964    1.1025339    247.60312 
   17000    4.0316261    6.0464313  -0.48363965    5.5627916    1.1048193    250.53456 
   17200    4.0121418    6.0172097  -0.52031726    5.4968924    1.0987458     252.9035 
   17400    4.0030917    6.0036367   -0.5708853    5.4327514    1.0995681    255.44102 
   17600    4.0838069    6.1246894  -0.47639809    5.6482913    1.1150947    258.28697 
   17800    4.0668284    6.0992259  -0.54261756    5.5566083    1.0994909    261.97609 
   18000    3.9494738    5.9232234   -0.4384118    5.4848116    1.1054665    265.55278 
   18200    4.0627964    6.0931789  -0.49169337    5.6014855    1.1049073    268.38443 
   18400    3.9875301    5.9802982  -0.46693214    5.5133661    1.1027605    271.07729 
   18600    3.9875128    5.9802723  -0.50172269    5.4785496    1.1021146    273.56787 
   18800    3.9860987    5.9781515  -0.45451139    5.5236401    1.1059132     276.3191 
   19000    3.9928197    5.9882314  -0.40863588    5.5795955    1.1084078    279.45232 
   19200    3.9877832    5.9806779  -0.46174427    5.5189336    1.1131656    282.95606 
   19400    3.9897149    5.9835749  -0.48071347    5.5028614    1.1020117    286.11672 
   19600    3.9936285    5.9894443  -0.46594317    5.5235011    1.1148176    289.04175 
   19800    4.0273245    6.0399799  -0.47666534    5.5633146    1.1138059     291.7966 
   20000    3.9350129    5.9015356  -0.48342571    5.4181099    1.0984227    294.39939 
Loop time of 294.399 on 1 procs for 20000 steps with 6000 atoms

Performance: 586957.680 tau/day, 67.935 timesteps/s
99.9% CPU use with 1 MPI tasks x no OpenMP threads

MPI task timing breakdown:
Section |  min time  |  avg time  |  max time  |%varavg| %total
---------------------------------------------------------------
Pair    | 259.87     | 259.87     | 259.87     |   0.0 | 88.27
Neigh   | 22.723     | 22.723     | 22.723     |   0.0 |  7.72
Comm    | 2.8609     | 2.8609     | 2.8609     |   0.0 |  0.97
Output  | 0.3162     | 0.3162     | 0.3162     |   0.0 |  0.11
Modify  | 6.8982     | 6.8982     | 6.8982     |   0.0 |  2.34
Other   |            | 1.735      |            |       |  0.59

Nlocal:    6000 ave 6000 max 6000 min
Histogram: 1 0 0 0 0 0 0 0 0 0
Nghost:    7684 ave 7684 max 7684 min
Histogram: 1 0 0 0 0 0 0 0 0 0
Neighs:    286764 ave 286764 max 286764 min
Histogram: 1 0 0 0 0 0 0 0 0 0

Total # of neighbors = 286764
Ave neighs/atom = 47.794
Neighbor list builds = 988
Dangerous builds = 0
Total wall time: 0:04:54
