LAMMPS (11 Aug 2017)
# Nuclear model with 75% neutrons and 25% protons
# Run to generate equilibrium position

units             lj
atom_style        atomic

pair_style        table linear 5000
boundary          p p p

read_data	  data.input_ZNyN
  orthogonal box = (0 0 0) to (42.2 42.2 42.2)
  1 by 1 by 1 MPI processor grid
WARNING: Atom style in data file differs from currently defined atom style (../read_data.cpp:493)
  reading atoms ...
  6000 atoms
  reading velocities ...
  6000 velocities

neighbor          1.2 bin
neigh_modify      every 1 delay 0 check yes one 8000 page 80000

timestep          0.1

thermo_style      custom step temp ke epair etotal press cpu
thermo            200
pair_coeff        1 1 pandha_msc.table NN 5.4
pair_coeff        1 2 pandha_msc.table NP 5.4
pair_coeff        2 2 pandha_msc.table PP 5.4

variable          p_step equal step
variable          p_temp equal temp
variable          p_ke equal ke
variable          p_epair equal epair
variable          p_tot equal etotal

fix               escribir all print 200 "${p_step} ${p_temp} ${p_ke} ${p_epair} ${p_tot}" file thermo.dat screen no title "step  temp ke epair etotal"

dump              myDUMP all custom 2000 eq_t_4.lammpstrj id type x y z vx vy vz
fix               1 all nvt temp 4.0 4.0 10.0

restart 	  2000 eq_t_4_*.restart
run 20000
Neighbor list info ...
  update every 1 steps, delay 0 steps, check yes
  max neighbors/atom: 8000, page size: 80000
  master list distance cutoff = 6.6
  ghost atom cutoff = 6.6
  binsize = 3.3, bins = 13 13 13
  1 neighbor lists, perpetual/occasional/extra = 1 0 0
  (1) pair table, perpetual
      attributes: half, newton on
      pair build: half/bin/atomonly/newton
      stencil: half/bin/3d/newton
      bin: standard
Per MPI rank memory allocation (min/avg/max) = 5.927 | 5.927 | 5.927 Mbytes
Step Temp KinEng E_pair TotEng Press CPU 
       0    1.0325194    1.5485209    4.8494575    6.3979784    1.3964372            0 
     200    3.8646737    5.7960443    1.8007286    7.5967729    1.3575293     2.095551 
     400    4.6935451    7.0391443  -0.35140741    6.6877369    1.2342452    4.2415941 
     600    4.0027012    6.0030511    -1.018312    4.9847391    1.1903986    6.5195761 
     800    3.7814615    5.6712469  -0.54669684    5.1245501    1.2831726    9.0581229 
    1000    4.1678933    6.2507979  -0.20361578    6.0471821    1.3216796    11.686627 
    1200    4.0471541    6.0697194    -0.634098    5.4356214    1.2003305     14.06216 
    1400    3.8100831    5.7141722  -0.98399183    4.7301803    1.0909487    16.305744 
    1600    3.9144829    5.8707457  -0.50829708    5.3624486    1.1029375    18.423401 
    1800    4.0945124     6.140745 -0.078870355    6.0618746    1.1409218    20.607838 
    2000    4.0052361    6.0068528 -0.036551638    5.9703011    1.1407534    22.864895 
    2200    3.9839062    5.9748634  -0.34958177    5.6252816    1.1251437    25.002081 
    2400    4.0077554    6.0106311  -0.54315408    5.4674771    1.1141474    27.184012 
    2600    3.9755511    5.9623328   -0.5678317    5.3945011     1.104967    29.403805 
    2800    3.9835303    5.9742995  -0.49973518    5.4745643    1.1203842    32.012692 
    3000    4.0439196    6.0648685  -0.43669018    5.6281783     1.132753    34.655124 
    3200    3.9695725    5.9533664  -0.51400432    5.4393621    1.1144256    36.986629 
    3400    4.0316044    6.0463988  -0.50761372    5.5387851    1.1111131    39.923376 
    3600    3.9554783    5.9322285  -0.44213352     5.490095    1.1068368    43.215185 
    3800    4.0122502    6.0173722  -0.50298144    5.5143907    1.1067579    46.455494 
    4000    3.9990752     5.997613  -0.46084159    5.5367714    1.1107845    49.504251 
    4200    4.0146217     6.020929  -0.50433339    5.5165956    1.0963228    52.329914 
    4400    3.9417158    5.9115883  -0.45944963    5.4521386       1.1065    55.416669 
    4600    3.9768561    5.9642899  -0.49685721    5.4674327    1.1039057    58.810449 
    4800    4.0029662    6.0034486  -0.51211392    5.4913347    1.1074178    62.162876 
    5000    4.0203491    6.0295186  -0.50796266     5.521556    1.1067231    64.595892 
    5200    3.9693212    5.9529894  -0.43018641     5.522803    1.1093644    66.925115 
    5400    4.0033725    6.0040579  -0.51742501    5.4866329    1.1110678    69.387469 
    5600    3.9912759    5.9859161  -0.45926464    5.5266515    1.0985391     71.67897 
    5800     4.022528    6.0327863  -0.50342316    5.5293631    1.0967351    73.910005 
    6000    4.0011823    6.0007732  -0.55672543    5.4440478    1.1058748    76.127927 
    6200    4.0707107    6.1050483  -0.50370832      5.60134     1.105321    78.095457 
    6400    3.9782253    5.9663433  -0.49418631     5.472157    1.1007433     80.55371 
    6600    3.9718578    5.9567937  -0.45825953    5.4985342    1.1073374    83.537136 
    6800    4.0727062    6.1080411  -0.40691022    5.7011309    1.1201353    86.961064 
    7000    4.0149725     6.021455  -0.43908864    5.5823664    1.1066654    89.956789 
    7200    3.9546374    5.9309675  -0.52456864    5.4063988    1.0974696    92.449677 
    7400    4.0093068    6.0129579  -0.44418278    5.5687751    1.1128963    94.912202 
    7600    4.0226597    6.0329838  -0.45231456    5.5806692    1.0996624    98.220681 
    7800    4.0096568    6.0134829  -0.52581158    5.4876713    1.0995745    103.77131 
    8000    4.1222544    6.1823511  -0.47202051    5.7103306    1.1153126    107.51984 
    8200    4.0083086    6.0114608  -0.49642672    5.5150341    1.1052621     110.8572 
    8400    4.0471474    6.0697093  -0.56099873    5.5087106    1.1026543    112.93479 
    8600     4.105128    6.1566658  -0.52917728    5.6274885     1.104585    115.35754 
    8800    3.9558354    5.9327641   -0.4500793    5.4826848    1.1127006    117.76883 
    9000    3.9481553     5.921246  -0.39767519    5.5235708    1.0990691    120.06568 
    9200     3.976693    5.9640454  -0.51452352    5.4495219    1.0987587    122.00348 
    9400    3.9777933    5.9656955  -0.51509297    5.4506025     1.096959    124.31896 
    9600    4.0436768    6.0645042  -0.43121701    5.6332872    1.1160436    126.70789 
    9800    4.0311039     6.045648  -0.49708364    5.5485644    1.1095395    128.98951 
   10000    3.9582685    5.9364132  -0.45071458    5.4856986    1.1109521    131.30806 
   10200    4.0320799    6.0471118  -0.47620447    5.5709073    1.1077018    133.56642 
   10400    3.9636048    5.9444164  -0.46859789    5.4758185    1.1040111    135.72818 
   10600    4.0421303     6.062185  -0.52104501      5.54114    1.1035409    138.00136 
   10800    4.1168638    6.1742664  -0.46006042     5.714206    1.1105709    140.40262 
   11000    3.9710048    5.9555145  -0.42872792    5.5267866     1.111444     142.8064 
   11200    4.0194264    6.0281348  -0.42879402    5.5993408    1.1128712    145.56636 
   11400    3.9745088    5.9607696  -0.55883356     5.401936    1.0951248    148.07392 
   11600    4.0496665    6.0734874  -0.44499402    5.6284934    1.1092861     150.0949 
   11800    3.9634652    5.9442069  -0.45029315    5.4939137    1.1012447    152.50221 
   12000     4.025931    6.0378901  -0.53696918    5.5009209     1.099143    155.06399 
   12200     4.012529    6.0177903  -0.41416106    5.6036293    1.1143175    157.17317 
   12400    3.9588128    5.9372295  -0.42169418    5.5155353    1.1115866    159.42469 
   12600    4.0595542    6.0883164  -0.44919327    5.6391231    1.1105659    161.84937 
   12800    3.9749815    5.9614785  -0.44910103    5.5123775    1.1038558    164.24658 
   13000    4.0072202    6.0098284  -0.47817649    5.5316519    1.1016203     166.4155 
   13200    4.0998015    6.1486773  -0.46865948    5.6800178    1.1171943    168.70929 
   13400     3.987048    5.9795752  -0.51789514    5.4616801    1.1007597    170.90434 
   13600     4.011943    6.0169115  -0.48308142    5.5338301    1.1067588    172.94909 
   13800    3.9951356    5.9917047  -0.43932435    5.5523803    1.1101829    175.17742 
   14000    3.9896923     5.983541   -0.5010101    5.4825309    1.1014892    177.72013 
   14200    4.0018999    6.0018494  -0.46373758    5.5381118    1.1064237    179.72527 
   14400    3.9149289    5.8714146  -0.58679172    5.2846228    1.0891314    181.70509 
   14600    3.9579354    5.9359135  -0.45924305    5.4766705    1.0965244     183.9968 
   14800    4.0531431    6.0787013  -0.45383431     5.624867    1.1074778    186.37003 
   15000    3.9616936    5.9415499  -0.49452167    5.4470283    1.0970959    188.48849 
   15200    4.0160391    6.0230546  -0.46088164     5.562173    1.1039202    190.48005 
   15400    3.9657017    5.9475612  -0.51349274    5.4340684    1.1041464     192.8886 
   15600    3.9745255    5.9607947  -0.47630268     5.484492    1.1016241     195.2404 
   15800    4.0456071    6.0673992  -0.46716228    5.6002369    1.1074475    198.25522 
   16000     3.991852    5.9867801  -0.48360117    5.5031789    1.1053018    201.91471 
   16200    4.0044517    6.0056764  -0.51297345     5.492703    1.0988978    204.12645 
   16400    4.0228914    6.0333314  -0.44918616    5.5841453    1.1112349    206.45408 
   16600    4.0147993    6.0211953  -0.52129477    5.4999005     1.099121    208.70668 
   16800    3.9903493    5.9845263  -0.39472626    5.5898001    1.1151721    210.93605 
   17000    4.1002577    6.1493615  -0.47989354     5.669468    1.1065216    213.39704 
   17200    3.9448305    5.9162596  -0.48785925    5.4284004    1.1042219    215.48085 
   17400    4.0362327    6.0533401  -0.45347171    5.5998684    1.1052359    217.52112 
   17600    3.9216111    5.8814362  -0.46229896    5.4191372    1.0952526    219.79275 
   17800    4.0211239    6.0306806  -0.51665257     5.514028     1.096833     222.2089 
   18000    4.0374337    6.0551413  -0.51089711    5.5442442    1.1001087    224.35861 
   18200     3.953028    5.9285538  -0.56119973    5.3673541    1.0976366     226.3017 
   18400    4.0382509    6.0563667  -0.51816907    5.5381977    1.1073309    228.60482 
   18600    4.0226797    6.0330139   -0.4916497    5.5413642     1.099241    230.87589 
   18800    3.9648733    5.9463188  -0.53816276     5.408156    1.0995941    233.02434 
   19000    4.0143919    6.0205843  -0.52255871    5.4980256    1.1010313    235.26956 
   19200    3.9822827    5.9724285  -0.41297905    5.5594494    1.1078193    237.55005 
   19400    3.9869229    5.9793876  -0.48904595    5.4903416    1.1070559    239.63502 
   19600     3.973563    5.9593511  -0.55032343    5.4090277    1.0999115       241.67 
   19800    3.9784936    5.9667457  -0.39944256    5.5673031    1.1167098    243.97516 
   20000    3.9909971    5.9854979  -0.51669018    5.4688077    1.0995073    246.44966 
Loop time of 246.45 on 1 procs for 20000 steps with 6000 atoms

Performance: 701157.335 tau/day, 81.152 timesteps/s
99.5% CPU use with 1 MPI tasks x no OpenMP threads

MPI task timing breakdown:
Section |  min time  |  avg time  |  max time  |%varavg| %total
---------------------------------------------------------------
Pair    | 217.62     | 217.62     | 217.62     |   0.0 | 88.30
Neigh   | 18.97      | 18.97      | 18.97      |   0.0 |  7.70
Comm    | 2.3705     | 2.3705     | 2.3705     |   0.0 |  0.96
Output  | 0.25271    | 0.25271    | 0.25271    |   0.0 |  0.10
Modify  | 5.7628     | 5.7628     | 5.7628     |   0.0 |  2.34
Other   |            | 1.469      |            |       |  0.60

Nlocal:    6000 ave 6000 max 6000 min
Histogram: 1 0 0 0 0 0 0 0 0 0
Nghost:    7580 ave 7580 max 7580 min
Histogram: 1 0 0 0 0 0 0 0 0 0
Neighs:    286575 ave 286575 max 286575 min
Histogram: 1 0 0 0 0 0 0 0 0 0

Total # of neighbors = 286575
Ave neighs/atom = 47.7625
Neighbor list builds = 993
Dangerous builds = 0
Total wall time: 0:04:06
