LAMMPS (11 Aug 2017)
# Nuclear model with 75% neutrons and 25% protons
# Run to generate equilibrium position

units             lj
atom_style        atomic

pair_style        table linear 5000
boundary          p p p

read_data	  data.input_ZNyN
  orthogonal box = (0 0 0) to (42.2 42.2 42.2)
  1 by 1 by 1 MPI processor grid
WARNING: Atom style in data file differs from currently defined atom style (../read_data.cpp:493)
  reading atoms ...
  6000 atoms
  reading velocities ...
  6000 velocities

neighbor          1.2 bin
neigh_modify      every 1 delay 0 check yes one 8000 page 80000

timestep          0.1

thermo_style      custom step temp ke epair etotal press cpu
thermo            200
pair_coeff        1 1 pandha_msc.table NN 5.4
pair_coeff        1 2 pandha_msc.table NP 5.4
pair_coeff        2 2 pandha_msc.table PP 5.4

variable          p_step equal step
variable          p_temp equal temp
variable          p_ke equal ke
variable          p_epair equal epair
variable          p_tot equal etotal

fix               escribir all print 200 "${p_step} ${p_temp} ${p_ke} ${p_epair} ${p_tot}" file thermo.dat screen no title "step  temp ke epair etotal"

dump              myDUMP all custom 2000 eq_t_3_*.lammpstrj id type x y z vx vy vz
fix               1 all nvt temp 3.0 3.0 10.0

run 20000
Neighbor list info ...
  update every 1 steps, delay 0 steps, check yes
  max neighbors/atom: 8000, page size: 80000
  master list distance cutoff = 6.6
  ghost atom cutoff = 6.6
  binsize = 3.3, bins = 13 13 13
  1 neighbor lists, perpetual/occasional/extra = 1 0 0
  (1) pair table, perpetual
      attributes: half, newton on
      pair build: half/bin/atomonly/newton
      stencil: half/bin/3d/newton
      bin: standard
Per MPI rank memory allocation (min/avg/max) = 5.927 | 5.927 | 5.927 Mbytes
Step Temp KinEng E_pair TotEng Press CPU 
       0    1.0325194    1.5485209    4.8494575    6.3979784    1.3964372            0 
     200    3.5756007    5.3625072    1.7337675    7.0962747    1.3281821    2.3533111 
     400     3.932612    5.8979348  -0.66732494    5.2306098    1.1359905    4.9488909 
     600    3.2361793    4.8534599   -1.5020776    3.3513824      1.07078     8.371371 
     800    2.8166972    4.2243416   -1.5008495    2.7234921    1.1007638    11.703281 
    1000    3.0153144    4.5222178   -1.0874494    3.4347684    1.1667736    14.919276 
    1200    3.1296076     4.693629    -1.282043     3.411586    1.0990756    17.901153 
    1400    2.9435277    4.4145557    -1.701842    2.7127137   0.98161914     20.96611 
    1600    2.9383778    4.4068321   -1.5466439    2.8601882   0.94364432    23.605933 
    1800     3.014456    4.5209303   -1.0614542    3.4594761   0.98291578    26.362316 
    2000    3.0282751    4.5416555  -0.89240332    3.6492522    0.9922148    29.196392 
    2200    2.9941907    4.4905375  -0.99494513    3.4955924   0.99305179    31.580856 
    2400    2.9903747    4.4848144   -1.1142644      3.37055   0.98090482    34.256259 
    2600    2.9987089    4.4973137   -1.2166838    3.2806299   0.97418493    36.953933 
    2800    2.9760982    4.4634032   -1.2327724    3.2306309   0.96919872    39.488893 
    3000    3.0043088     4.505712   -1.2521638    3.2535482   0.98941802    42.223709 
    3200    2.9681561    4.4514921   -1.1871329    3.2643592   0.98456075     44.99788 
    3400    2.9889662     4.482702   -1.2224792    3.2602228     0.982803    48.659268 
    3600    3.0097716    4.5139049   -1.2469923    3.2669126   0.97881026    52.068529 
    3800    2.9953488    4.4922744   -1.2490684     3.243206   0.96373826    55.121774 
    4000    2.9928844    4.4885783   -1.2552273     3.233351   0.96733119    58.398267 
    4200    3.0183607    4.5267865   -1.1761509    3.3506356   0.97661841     61.32063 
    4400    2.9886534     4.482233   -1.1891417    3.2930913   0.96468695    64.026351 
    4600    2.9907951     4.485445   -1.1350864    3.3503586   0.97230069    66.570341 
    4800    3.0104268    4.5148876   -1.1746503    3.3402373   0.96637607    69.175166 
    5000    2.9694309    4.4534039   -1.2055992    3.2478047   0.96803798    72.069253 
    5200    3.0493283    4.5732301   -1.2105711     3.362659   0.98004073    75.508234 
    5400     2.951736     4.426866   -1.1679296    3.2589364   0.96923607     78.84562 
    5600    3.0096659    4.5137464   -1.2059661    3.3077802   0.97184533    81.951993 
    5800    2.9797051    4.4688127   -1.2511586     3.217654   0.96644353    84.881501 
    6000    3.0413816    4.5613121   -1.2563424    3.3049697   0.96660265    88.164985 
    6200    3.0296987    4.5437907   -1.2368771    3.3069135   0.96533913    90.842828 
    6400    2.9678603    4.4510484   -1.2353875     3.215661   0.96911378    93.351586 
    6600    3.0389975    4.5577365   -1.2491911    3.3085455   0.97191103    95.693713 
    6800    2.9676684    4.4507607   -1.1980007    3.2527599   0.97006662    97.946746 
    7000    3.0629554    4.5936673   -1.2177155    3.3759518    0.9805485    100.05618 
    7200    2.9676583    4.4507455   -1.2108933    3.2398522   0.96738081    102.21693 
    7400    3.0082118    4.5115656   -1.2654883    3.2460773   0.96790454    104.52717 
    7600    2.9700545    4.4543392   -1.2625242     3.191815   0.96325948    106.57246 
    7800    3.0309524    4.5456709   -1.2587309    3.2869399   0.96707586    108.60151 
    8000    3.0196372    4.5287009   -1.2296683    3.2990326   0.96207587    111.05823 
    8200    2.9488478    4.4225345   -1.2505109    3.1720235   0.97010928    113.21877 
    8400    3.0020697    4.5023541   -1.1598929    3.3424612   0.97235324    115.30701 
    8600    2.9966528      4.49423   -1.2188847    3.2753454   0.96717705    119.56776 
    8800    2.9707511     4.455384   -1.2729555    3.1824285   0.96028843    121.83316 
    9000    2.9933972    4.4893475   -1.2033292    3.2860183   0.96947684    124.33489 
    9200    2.9483013    4.4217149   -1.2045399     3.217175   0.96564387     126.3166 
    9400    3.0298059    4.5439514   -1.1981385    3.3458128   0.97120585    128.27636 
    9600    2.9536837    4.4297872   -1.2253938    3.2043933   0.95803867    130.49715 
    9800    2.9861947    4.4785455   -1.1890901    3.2894554   0.96599542    132.99031 
   10000    3.0447266    4.5663288    -1.169778    3.3965508   0.97497845    136.14239 
   10200    2.9831383    4.4739616   -1.2571775    3.2167841   0.96102525    138.75435 
   10400    3.0301284    4.5444351    -1.244449    3.2999861   0.96481903    141.25588 
   10600     2.982836    4.4735084   -1.2053609    3.2681474   0.96933491    143.59391 
   10800    3.0150801    4.5218664   -1.1952573    3.3266091   0.96822847    145.78993 
   11000    2.9659086    4.4481214    -1.213285    3.2348364   0.96283728    147.83276 
   11200    3.0601974     4.589531   -1.1980221    3.3915089   0.97714481    149.91032 
   11400    3.0006682    4.5002522   -1.2208483    3.2794039   0.96186121    152.17479 
   11600    2.9949686    4.4917041   -1.1884651     3.303239   0.95940203    154.25906 
   11800    3.0498524    4.5740162   -1.1853016    3.3887146   0.96872399    156.29653 
   12000    2.9517492    4.4268858   -1.1562415    3.2706443   0.97546155    158.64271 
   12200    3.0402755    4.5596532   -1.2283625    3.3312907    0.9700922    160.89452 
   12400    2.9538395    4.4300208   -1.2065181    3.2235028   0.96551493    162.88164 
   12600     3.041815     4.561962   -1.2008562    3.3611058   0.97234497    164.88171 
   12800    3.0027627    4.5033933   -1.2506407    3.2527527   0.96766553    167.28203 
   13000    2.9802824    4.4696785   -1.1923824    3.2772961   0.97176977     169.5681 
   13200     3.028754    4.5423739   -1.2440847    3.2982892   0.96821098    171.48619 
   13400    2.9872933    4.4801931    -1.263546    3.2166471   0.95969351    173.58607 
   13600    3.0068961    4.5095924   -1.1687678    3.3408246   0.96859881    175.90882 
   13800    2.9812977    4.4712012   -1.2520897    3.2191114    0.9595935    178.05707 
   14000    3.0297623    4.5438861   -1.1904293    3.3534567   0.96375136    180.12847 
   14200    3.0230391    4.5338029   -1.2306143    3.3031887   0.97141488    182.23839 
   14400    2.9999034    4.4991052   -1.2638971    3.2352081   0.96157735    184.51046 
   14600    3.0390458    4.5578089   -1.2027502    3.3550587   0.97374404    186.53562 
   14800    3.0206332    4.5301946   -1.1698172    3.3603774   0.96907999    188.57728 
   15000    2.9893314    4.4832498   -1.2373048     3.245945   0.96070012    190.93887 
   15200    3.0205757    4.5301084   -1.2174021    3.3127064   0.96406988    193.13507 
   15400    2.9045023    4.3560273   -1.2202698    3.1357574   0.95452368    196.38533 
   15600    2.9506996    4.4253118   -1.1197782    3.3055336   0.96664757    198.67437 
   15800    3.0037514    4.5048762   -1.1525108    3.3523654   0.96755959    201.62024 
   16000    2.9674687    4.4504612   -1.2612031     3.189258   0.96066404    204.73532 
   16200    3.0163713    4.5238028   -1.2233689    3.3004339   0.96432328    207.26507 
   16400    3.0025888    4.5031326   -1.1811869    3.3219457    0.9710296     209.7016 
   16600    2.9732738    4.4591673   -1.2285441    3.2306232   0.96160856    212.02115 
   16800    3.0606941     4.590276   -1.2102119    3.3800642   0.97240554    214.14857 
   17000    3.0149734    4.5217064   -1.2351627    3.2865437   0.96655066    216.20419 
   17200    3.0071895    4.5100325   -1.2621394    3.2478931   0.96085224    218.34327 
   17400    2.9523451    4.4277796   -1.2169351    3.2108445   0.95529657    220.67126 
   17600    3.0333144    4.5492133   -1.1831846    3.3660287   0.97256591    222.71063 
   17800    2.9883001     4.481703    -1.220298    3.2614051   0.95142964    224.75538 
   18000    2.9949806    4.4917222   -1.2613279    3.2303943   0.96449068    227.15186 
   18200    2.9602347     4.439612   -1.1745217    3.2650903    0.9591735    229.32211 
   18400    3.0199774    4.5292111   -1.1550384    3.3741727   0.97114592    231.26528 
   18600    2.9719489    4.4571803   -1.2058294     3.251351   0.96227734    233.33054 
   18800    3.0123435    4.5177622   -1.2633718    3.2543903   0.96305895    235.67964 
   19000    3.0232734    4.5341542   -1.1884334    3.3457208   0.97311752    237.89625 
   19200    3.0420957    4.5623831   -1.2489629    3.3134202   0.96216084    239.83306 
   19400      2.98788     4.481073   -1.1954586    3.2856144   0.96178348    241.94741 
   19600    2.9867511    4.4793799   -1.1552304    3.3241495   0.97130926    244.28402 
   19800    2.9725534    4.4580869   -1.2364058    3.2216811   0.96391239    246.39254 
   20000    2.9994335    4.4984003    -1.260695    3.2377054   0.96308583    248.46271 
Loop time of 248.463 on 1 procs for 20000 steps with 6000 atoms

Performance: 695476.538 tau/day, 80.495 timesteps/s
99.9% CPU use with 1 MPI tasks x no OpenMP threads

MPI task timing breakdown:
Section |  min time  |  avg time  |  max time  |%varavg| %total
---------------------------------------------------------------
Pair    | 221.14     | 221.14     | 221.14     |   0.0 | 89.00
Neigh   | 17.109     | 17.109     | 17.109     |   0.0 |  6.89
Comm    | 2.3807     | 2.3807     | 2.3807     |   0.0 |  0.96
Output  | 0.29104    | 0.29104    | 0.29104    |   0.0 |  0.12
Modify  | 6.0713     | 6.0713     | 6.0713     |   0.0 |  2.44
Other   |            | 1.47       |            |       |  0.59

Nlocal:    6000 ave 6000 max 6000 min
Histogram: 1 0 0 0 0 0 0 0 0 0
Nghost:    7553 ave 7553 max 7553 min
Histogram: 1 0 0 0 0 0 0 0 0 0
Neighs:    286962 ave 286962 max 286962 min
Histogram: 1 0 0 0 0 0 0 0 0 0

Total # of neighbors = 286962
Ave neighs/atom = 47.827
Neighbor list builds = 867
Dangerous builds = 0
Total wall time: 0:04:08
