LAMMPS (11 Aug 2017)
# Nuclear model with 75% neutrons and 25% protons
# Run to generate equilibrium position

units             lj
atom_style        atomic

pair_style        table linear 5000
boundary          p p p

read_data	  data.input_ZNyN
  orthogonal box = (0 0 0) to (42.2 42.2 42.2)
  1 by 1 by 1 MPI processor grid
WARNING: Atom style in data file differs from currently defined atom style (../read_data.cpp:493)
  reading atoms ...
  6000 atoms
  reading velocities ...
  6000 velocities

neighbor          1.2 bin
neigh_modify      every 1 delay 0 check yes one 8000 page 80000

timestep          0.1

thermo_style      custom step temp ke epair etotal press cpu
thermo            200
pair_coeff        1 1 pandha_msc.table NN 5.4
pair_coeff        1 2 pandha_msc.table NP 5.4
pair_coeff        2 2 pandha_msc.table PP 5.4

variable          p_step equal step
variable          p_temp equal temp
variable          p_ke equal ke
variable          p_epair equal epair
variable          p_tot equal etotal

fix               escribir all print 200 "${p_step} ${p_temp} ${p_ke} ${p_epair} ${p_tot}" file thermo.dat screen no title "step  temp ke epair etotal"

dump              myDUMP all custom 2000 eq_t_3.lammpstrj id type x y z vx vy vz
fix               1 all nvt temp 3.0 3.0 10.0

restart 	  2000 eq_t_3_*.restart
run 20000
Neighbor list info ...
  update every 1 steps, delay 0 steps, check yes
  max neighbors/atom: 8000, page size: 80000
  master list distance cutoff = 6.6
  ghost atom cutoff = 6.6
  binsize = 3.3, bins = 13 13 13
  1 neighbor lists, perpetual/occasional/extra = 1 0 0
  (1) pair table, perpetual
      attributes: half, newton on
      pair build: half/bin/atomonly/newton
      stencil: half/bin/3d/newton
      bin: standard
Per MPI rank memory allocation (min/avg/max) = 5.927 | 5.927 | 5.927 Mbytes
Step Temp KinEng E_pair TotEng Press CPU 
       0    1.0325194    1.5485209    4.8494575    6.3979784    1.3964372            0 
     200    3.5756007    5.3625072    1.7337675    7.0962747    1.3281821     2.148216 
     400     3.932612    5.8979348  -0.66732494    5.2306098    1.1359905     4.313132 
     600    3.2361793    4.8534599   -1.5020776    3.3513824      1.07078     6.538414 
     800    2.8166972    4.2243416   -1.5008495    2.7234921    1.1007638    8.9740691 
    1000    3.0153144    4.5222178   -1.0874494    3.4347684    1.1667736    11.693251 
    1200    3.1296076     4.693629    -1.282043     3.411586    1.0990756    14.595053 
    1400    2.9435277    4.4145557    -1.701842    2.7127137   0.98161914    17.443407 
    1600    2.9383778    4.4068321   -1.5466439    2.8601882   0.94364432    19.743601 
    1800     3.014456    4.5209303   -1.0614542    3.4594761   0.98291578    22.125455 
    2000    3.0282751    4.5416555  -0.89240332    3.6492522    0.9922148    24.593869 
    2200    2.9941907    4.4905375  -0.99494513    3.4955924   0.99305179    26.558406 
    2400    2.9903747    4.4848144   -1.1142644      3.37055   0.98090482    28.542554 
    2600    2.9987089    4.4973137   -1.2166838    3.2806299   0.97418493    30.880867 
    2800    2.9760982    4.4634032   -1.2327724    3.2306309   0.96919872    33.201142 
    3000    3.0043088     4.505712   -1.2521638    3.2535482   0.98941802    35.312939 
    3200    2.9681561    4.4514921   -1.1871329    3.2643592   0.98456075    37.414729 
    3400    2.9889662     4.482702   -1.2224792    3.2602228     0.982803    39.773031 
    3600    3.0097716    4.5139049   -1.2469923    3.2669126   0.97881026    41.968575 
    3800    2.9953488    4.4922744   -1.2490684     3.243206   0.96373826    44.050382 
    4000    2.9928844    4.4885784   -1.2552273     3.233351   0.96733119    46.410956 
    4200    3.0183605    4.5267862   -1.1761507    3.3506355   0.97661841    48.659353 
    4400    2.9886537    4.4822334   -1.1891418    3.2930916   0.96468691    50.651052 
    4600    2.9907955    4.4854456   -1.1350883    3.3503573   0.97229967    52.659834 
    4800    3.0104204    4.5148779   -1.1746317    3.3402462   0.96638189    55.047945 
    5000    2.9693386    4.4532656   -1.2054678    3.2477978   0.96804515    57.356247 
    5200    3.0494006    4.5733386   -1.2107166     3.362622   0.98002099    59.304188 
    5400    2.9542252    4.4305992   -1.1705735    3.2600257   0.96886884    61.402681 
    5600     3.013717     4.519822   -1.2115319    3.3082901    0.9711587    63.759905 
    5800    3.0038259    4.5049879     -1.28378    3.2212079   0.96868562    66.193801 
    6000    3.0078389    4.5110064   -1.2414623    3.2695441   0.95811124    68.381274 
    6200    2.9930846    4.4888787    -1.245811    3.2430677   0.96255455    70.681239 
    6400    3.0128823    4.5185703   -1.2619648    3.2566055   0.96621654    73.327415 
    6600    3.0199451    4.5291627   -1.2420882    3.2870744   0.97364271    76.325804 
    6800    2.9718754    4.4570702   -1.1786969    3.2783733    0.9664355    79.155922 
    7000    3.0301214    4.5444246   -1.1901362    3.3542885    0.9681566    81.984584 
    7200    2.9758053     4.462964   -1.2268546    3.2361094   0.96406031    84.301328 
    7400    3.0107394    4.5153565   -1.2276614    3.2876951   0.96596787    86.340267 
    7600    2.9508771    4.4255779   -1.2427185    3.1828595   0.95878466     88.38135 
    7800    3.0134807    4.5194677   -1.1959526    3.3235152   0.97681529     90.69132 
    8000     2.984512    4.4760219   -1.2492053    3.2268166   0.96610834    93.076265 
    8200    2.9766107     4.464172   -1.2185108    3.2456611   0.97180499    94.996808 
    8400    3.0298373    4.5439985   -1.1609574    3.3830411   0.97005132     97.02403 
    8600    3.0186303    4.5271907   -1.1887845    3.3384063   0.97187243    99.353738 
    8800    2.9771843    4.4650321   -1.1798475    3.2851846   0.96805242    101.58089 
    9000    2.9676272    4.4506989   -1.2099791    3.2407199   0.96224419    103.65881 
    9200    3.0127716    4.5184043   -1.1750572    3.3433471   0.96625292    105.71447 
    9400    2.9971602     4.494991    -1.295534     3.199457   0.95758896    108.09944 
    9600    3.0408326    4.5604887    -1.253593    3.3068958   0.97076674    110.30078 
    9800    2.9783573    4.4667913   -1.2119342    3.2548572    0.9658117     114.5252 
   10000    2.9499009    4.4241139   -1.2803001    3.1438139   0.95002175    117.43043 
   10200    2.9933359    4.4892554   -1.1948719    3.2943835   0.96599643    119.90191 
   10400     3.006776    4.5094123   -1.2208781    3.2885342    0.9652758    121.99954 
   10600    2.9834778    4.4744708   -1.2639642    3.2105066   0.96046829    124.00352 
   10800    3.0405892    4.5601237   -1.2251078    3.3350158   0.96178099    126.33707 
   11000    2.9760508    4.4633323   -1.1955049    3.2678273   0.97101985    128.85445 
   11200     2.996734    4.4943518   -1.2287612    3.2655906   0.95945261    130.89922 
   11400    3.0085441     4.512064   -1.2157527    3.2963113   0.96868942     132.9193 
   11600    2.9937252    4.4898393   -1.1847566    3.3050828    0.9698221    135.25042 
   11800    3.0366928      4.55428     -1.22579      3.32849   0.96438383    137.55785 
   12000    2.9561108    4.4334272   -1.1764572      3.25697   0.96367523    139.67719 
   12200    3.0499237     4.574123   -1.1863741     3.387749   0.97609301    141.79361 
   12400    2.9982013    4.4965524   -1.2266856    3.2698668   0.96277154    144.12507 
   12600    3.0143254    4.5207345   -1.2550106     3.265724   0.96695779    146.24432 
   12800    3.0293903    4.5433281   -1.1207397    3.4225884   0.97437163    148.30554 
   13000    3.0097737    4.5139081   -1.2500338    3.2638743   0.95837212    150.66466 
   13200    3.0166346    4.5241977    -1.184216    3.3399817   0.97052903    152.90365 
   13400    2.9475889    4.4206464   -1.1989728    3.2216736   0.96791204    154.88894 
   13600    3.0039914    4.5052361   -1.2118987    3.2933375   0.96723606    156.92163 
   13800    2.9786898      4.46729   -1.1907199    3.2765701   0.96210921    159.29428 
   14000    2.9330938    4.3989075   -1.2891254    3.1097821   0.94906754    161.63243 
   14200    2.9961356    4.4934544    -1.224927    3.2685273   0.95920658    163.55609 
   14400    3.0127843    4.5184233   -1.2217877    3.2966356   0.96698166    165.65432 
   14600    3.0522228    4.5775712   -1.1934187    3.3841524   0.97283939    167.98043 
   14800    2.9950931    4.4918909   -1.2621467    3.2297442   0.96281887    170.12288 
   15000    2.9857895    4.4779379   -1.2294801    3.2484578   0.96324632    172.20034 
   15200    3.0656989     4.597782   -1.1595516    3.4382304   0.98141679    174.34865 
   15400    2.9919268    4.4871422   -1.2154145    3.2717277   0.95995734    176.60657 
   15600    3.0491442     4.572954   -1.2361132    3.3368408    0.9676732    178.64362 
   15800    2.9749244    4.4616429   -1.2206075    3.2410354   0.95167187    180.77238 
   16000    3.0038375    4.5050053   -1.2187255    3.2862799   0.95645077    183.26444 
   16200    3.0018192    4.5019784   -1.2317521    3.2702263   0.96763029    185.32251 
   16400    2.9916603    4.4867425   -1.2202285    3.2665139   0.96667567    187.31626 
   16600    3.0556005    4.5826368   -1.1244681    3.4581687   0.98038948    189.44828 
   16800    3.0160146    4.5232678   -1.2335273    3.2897405   0.96347027    191.85979 
   17000    2.9753572     4.462292   -1.2534352    3.2088568   0.95815332    194.11666 
   17200    3.0019039    4.5021054   -1.1758783    3.3262271   0.97123804    196.05728 
   17400    2.9755192    4.4625349   -1.2578182    3.2047167   0.96357184    198.16863 
   17600    2.9733735    4.4593169   -1.2208989     3.238418    0.9616333     200.5125 
   17800    2.9869296    4.4796476   -1.1891829    3.2904647   0.96526481    202.62716 
   18000    3.0226862    4.5332736   -1.2886977    3.2445758   0.95150885    204.74525 
   18200    2.9454927    4.4175027   -1.1919767     3.225526   0.95772407    206.92587 
   18400    3.0094043    4.5133541   -1.2030395    3.3103147   0.97278528     209.2082 
   18600    2.9713456    4.4562756   -1.1936866     3.262589   0.96557812    211.25696 
   18800    3.0156723    4.5227545   -1.1419004    3.3808541   0.96898286    213.33685 
   19000    2.9773166    4.4652306   -1.2053592    3.2598714   0.96326881    215.75611 
   19200    3.0052698    4.5071533   -1.1891489    3.3180044   0.97549228    217.88372 
   19400    2.9349108    4.4016325   -1.1709132    3.2307193    0.9634746    219.88306 
   19600    3.0400369    4.5592953   -1.2810909    3.2782044   0.96115999     222.0181 
   19800    2.9788699    4.4675601   -1.1596368    3.3079233   0.96955439    224.43212 
   20000    3.0634107    4.5943502   -1.1406963    3.4536539   0.98157196    226.64882 
Loop time of 226.649 on 1 procs for 20000 steps with 6000 atoms

Performance: 762412.909 tau/day, 88.242 timesteps/s
100.0% CPU use with 1 MPI tasks x no OpenMP threads

MPI task timing breakdown:
Section |  min time  |  avg time  |  max time  |%varavg| %total
---------------------------------------------------------------
Pair    | 201.64     | 201.64     | 201.64     |   0.0 | 88.96
Neigh   | 15.777     | 15.777     | 15.777     |   0.0 |  6.96
Comm    | 2.1277     | 2.1277     | 2.1277     |   0.0 |  0.94
Output  | 0.24408    | 0.24408    | 0.24408    |   0.0 |  0.11
Modify  | 5.5443     | 5.5443     | 5.5443     |   0.0 |  2.45
Other   |            | 1.319      |            |       |  0.58

Nlocal:    6000 ave 6000 max 6000 min
Histogram: 1 0 0 0 0 0 0 0 0 0
Nghost:    7663 ave 7663 max 7663 min
Histogram: 1 0 0 0 0 0 0 0 0 0
Neighs:    286514 ave 286514 max 286514 min
Histogram: 1 0 0 0 0 0 0 0 0 0

Total # of neighbors = 286514
Ave neighs/atom = 47.7523
Neighbor list builds = 869
Dangerous builds = 0
Total wall time: 0:03:46
