LAMMPS (11 Aug 2017)
# Nuclear model with 75% neutrons and 25% protons
# Run to generate equilibrium position

units             lj
atom_style        atomic

pair_style        table linear 5000
boundary          p p p

read_data	  data.input_ZNyN
  orthogonal box = (0 0 0) to (42.2 42.2 42.2)
  1 by 1 by 1 MPI processor grid
WARNING: Atom style in data file differs from currently defined atom style (../read_data.cpp:493)
  reading atoms ...
  6000 atoms
  reading velocities ...
  6000 velocities

neighbor          1.2 bin
neigh_modify      every 1 delay 0 check yes one 8000 page 80000

timestep          0.1

thermo_style      custom step temp ke epair etotal press cpu
thermo            200
pair_coeff        1 1 pandha_msc.table NN 5.4
pair_coeff        1 2 pandha_msc.table NP 5.4
pair_coeff        2 2 pandha_msc.table PP 5.4

variable          p_step equal step
variable          p_temp equal temp
variable          p_ke equal ke
variable          p_epair equal epair
variable          p_tot equal etotal

fix               escribir all print 200 "${p_step} ${p_temp} ${p_ke} ${p_epair} ${p_tot}" file thermo.dat screen no title "step  temp ke epair etotal"

dump              myDUMP all custom 2000 eq_t_3.lammpstrj id type x y z vx vy vz
fix               1 all nvt temp 3.0 3.0 10.0

write_restart 	  eq_t_3_*.restart
Neighbor list info ...
  update every 1 steps, delay 0 steps, check yes
  max neighbors/atom: 8000, page size: 80000
  master list distance cutoff = 6.6
  ghost atom cutoff = 6.6
  binsize = 3.3, bins = 13 13 13
  1 neighbor lists, perpetual/occasional/extra = 1 0 0
  (1) pair table, perpetual
      attributes: half, newton on
      pair build: half/bin/atomonly/newton
      stencil: half/bin/3d/newton
      bin: standard
run 20000
Per MPI rank memory allocation (min/avg/max) = 6.007 | 6.007 | 6.007 Mbytes
Step Temp KinEng E_pair TotEng Press CPU 
       0    1.0325194    1.5485209    4.8494575    6.3979784    1.3964372            0 
     200    3.5756007    5.3625072    1.7337675    7.0962747    1.3281821    2.0983489 
     400     3.932612    5.8979348  -0.66732494    5.2306098    1.1359905    4.2448878 
     600    3.2361793    4.8534599   -1.5020776    3.3513824      1.07078     6.511193 
     800    2.8166972    4.2243416   -1.5008495    2.7234921    1.1007638    9.0577838 
    1000    3.0153144    4.5222178   -1.0874494    3.4347684    1.1667736    12.043899 
    1200    3.1296076     4.693629    -1.282043     3.411586    1.0990756    14.463773 
    1400    2.9435277    4.4145557    -1.701842    2.7127137   0.98161914    16.826405 
    1600    2.9383778    4.4068321   -1.5466439    2.8601882   0.94364432    19.337134 
    1800     3.014456    4.5209303   -1.0614542    3.4594761   0.98291578    21.595635 
    2000    3.0282751    4.5416555  -0.89240332    3.6492522    0.9922148    23.733535 
    2200    2.9941907    4.4905375  -0.99494513    3.4955924   0.99305179    25.932671 
    2400    2.9903747    4.4848144   -1.1142644      3.37055   0.98090482    28.264422 
    2600    2.9987089    4.4973137   -1.2166838    3.2806299   0.97418493    30.354603 
    2800    2.9760982    4.4634032   -1.2327724    3.2306309   0.96919872    32.619109 
    3000    3.0043088     4.505712   -1.2521638    3.2535482   0.98941802     34.99343 
    3200    2.9681561    4.4514921   -1.1871329    3.2643592   0.98456075    37.296868 
    3400    2.9889662     4.482702   -1.2224792    3.2602228     0.982803    39.853415 
    3600    3.0097716    4.5139049   -1.2469923    3.2669126   0.97881026    42.077007 
    3800    2.9953488    4.4922744   -1.2490684     3.243206   0.96373826    44.288032 
    4000    2.9928844    4.4885783   -1.2552273     3.233351   0.96733119    46.508771 
    4200    3.0183607    4.5267865   -1.1761509    3.3506356   0.97661841    48.578277 
    4400    2.9886534     4.482233   -1.1891417    3.2930913   0.96468695    50.657635 
    4600    2.9907951     4.485445   -1.1350864    3.3503586   0.97230069    52.861511 
    4800    3.0104268    4.5148876   -1.1746503    3.3402373   0.96637607    55.361648 
    5000    2.9694309    4.4534039   -1.2055992    3.2478047   0.96803798    57.672017 
    5200    3.0493283    4.5732301   -1.2105711     3.362659   0.98004073    59.718694 
    5400     2.951736     4.426866   -1.1679296    3.2589364   0.96923607    62.046442 
    5600    3.0096659    4.5137464   -1.2059661    3.3077802   0.97184533    64.498639 
    5800    2.9797051    4.4688127   -1.2511586     3.217654   0.96644353     66.68798 
    6000    3.0413816    4.5613121   -1.2563424    3.3049697   0.96660265     69.17207 
    6200    3.0296987    4.5437907   -1.2368771    3.3069135   0.96533913    71.572537 
    6400    2.9678603    4.4510484   -1.2353875     3.215661   0.96911378    75.012343 
    6600    3.0389975    4.5577365   -1.2491911    3.3085455   0.97191103    78.721145 
    6800    2.9676684    4.4507607   -1.1980007    3.2527599   0.97006662    81.733678 
    7000    3.0629554    4.5936673   -1.2177155    3.3759518    0.9805485    84.391769 
    7200    2.9676583    4.4507455   -1.2108933    3.2398522   0.96738081    87.355974 
    7400    3.0082118    4.5115656   -1.2654883    3.2460773   0.96790454    89.967923 
    7600    2.9700545    4.4543392   -1.2625242     3.191815   0.96325948    92.435188 
    7800    3.0309524    4.5456709   -1.2587309    3.2869399   0.96707586    95.232358 
    8000    3.0196372    4.5287009   -1.2296683    3.2990326   0.96207587    97.926644 
    8200    2.9488478    4.4225345   -1.2505109    3.1720235   0.97010928    100.26919 
    8400    3.0020697    4.5023541   -1.1598929    3.3424612   0.97235324    103.00811 
    8600    2.9966528      4.49423   -1.2188847    3.2753454   0.96717705    105.63515 
    8800    2.9707511     4.455384   -1.2729555    3.1824285   0.96028843    108.12745 
    9000    2.9933972    4.4893475   -1.2033292    3.2860183   0.96947684    110.95028 
    9200    2.9483013    4.4217149   -1.2045399     3.217175   0.96564387    113.51094 
    9400    3.0298059    4.5439514   -1.1981385    3.3458128   0.97120585    115.90518 
    9600    2.9536837    4.4297872   -1.2253938    3.2043933   0.95803867    118.53468 
    9800    2.9861947    4.4785455   -1.1890901    3.2894554   0.96599542     121.2264 
   10000    3.0447266    4.5663288    -1.169778    3.3965508   0.97497845    123.84273 
   10200    2.9831383    4.4739616   -1.2571775    3.2167841   0.96102525     126.4326 
   10400    3.0301284    4.5444351    -1.244449    3.2999861   0.96481903    129.36286 
   10600     2.982836    4.4735084   -1.2053609    3.2681474   0.96933491    132.94821 
   10800    3.0150801    4.5218664   -1.1952573    3.3266091   0.96822847    136.09257 
   11000    2.9659086    4.4481214    -1.213285    3.2348364   0.96283728    138.91869 
   11200    3.0601974     4.589531   -1.1980221    3.3915089   0.97714481    141.44626 
   11400    3.0006682    4.5002522   -1.2208483    3.2794039   0.96186121    143.89698 
   11600    2.9949686    4.4917041   -1.1884651     3.303239   0.95940203    146.52554 
   11800    3.0498524    4.5740162   -1.1853016    3.3887146   0.96872399    149.18162 
   12000    2.9517492    4.4268858   -1.1562415    3.2706443   0.97546155     151.6895 
   12200    3.0402755    4.5596532   -1.2283625    3.3312907    0.9700922    154.22858 
   12400    2.9538395    4.4300208   -1.2065181    3.2235028   0.96551493    157.30885 
   12600     3.041815     4.561962   -1.2008562    3.3611058   0.97234497    160.91152 
   12800    3.0027627    4.5033933   -1.2506407    3.2527527   0.96766553    164.06185 
   13000    2.9802824    4.4696785   -1.1923824    3.2772961   0.97176977    166.92014 
   13200     3.028754    4.5423739   -1.2440847    3.2982892   0.96821098    169.41038 
   13400    2.9872933    4.4801931    -1.263546    3.2166471   0.95969351    171.76672 
   13600    3.0068961    4.5095924   -1.1687678    3.3408246   0.96859881    174.41303 
   13800    2.9812977    4.4712012   -1.2520897    3.2191114    0.9595935    177.08146 
   14000    3.0297623    4.5438861   -1.1904293    3.3534567   0.96375136    179.60163 
   14200    3.0230391    4.5338029   -1.2306143    3.3031